# vtk DataFile Version 3.0
vtk output
ASCII
DATASET UNSTRUCTURED_GRID
POINTS 14328 float
0.000000e+00	3.600000e-02	0.0	8.640000e-02	8.400000e-03	0.0	1.229370e-01	1.128710e-02	0.0	0.000000e+00	0.000000e+00	0.0	8.640000e-02	0.000000e+00	0.0	1.229370e-01	0.000000e+00	0.0	6.979464e-04	3.599708e-02	0.0	1.395840e-03	3.598809e-02	0.0	2.093625e-03	3.597283e-02	0.0	2.791239e-03	3.595115e-02	0.0	3.488613e-03	3.592277e-02	0.0	4.185671e-03	3.588746e-02	0.0	4.882330e-03	3.584503e-02	0.0	5.578510e-03	3.579534e-02	0.0	6.274120e-03	3.573823e-02	0.0	6.969067e-03	3.567355e-02	0.0	7.663242e-03	3.560105e-02	0.0	8.356551e-03	3.552069e-02	0.0	9.048887e-03	3.543236e-02	0.0	9.740144e-03	3.533593e-02	0.0	1.043020e-02	3.523127e-02	0.0	1.111895e-02	3.511832e-02	0.0	1.180630e-02	3.499712e-02	0.0	1.249211e-02	3.486750e-02	0.0	1.317627e-02	3.472947e-02	0.0	1.385871e-02	3.458316e-02	0.0	1.453927e-02	3.442834e-02	0.0	1.521791e-02	3.426529e-02	0.0	1.589448e-02	3.409386e-02	0.0	1.656890e-02	3.391416e-02	0.0	1.724110e-02	3.372633e-02	0.0	1.791097e-02	3.353034e-02	0.0	1.857843e-02	3.332631e-02	0.0	1.924345e-02	3.311445e-02	0.0	1.990592e-02	3.289476e-02	0.0	2.056585e-02	3.266753e-02	0.0	2.122312e-02	3.243274e-02	0.0	2.187774e-02	3.219064e-02	0.0	2.252965e-02	3.194136e-02	0.0	2.317886e-02	3.168511e-02	0.0	2.382533e-02	3.142203e-02	0.0	2.446905e-02	3.115229e-02	0.0	2.511004e-02	3.087613e-02	0.0	2.574834e-02	3.059380e-02	0.0	2.638391e-02	3.030538e-02	0.0	2.701683e-02	3.001119e-02	0.0	2.764709e-02	2.971133e-02	0.0	2.827475e-02	2.940609e-02	0.0	2.889990e-02	2.909571e-02	0.0	2.952253e-02	2.878033e-02	0.0	3.014271e-02	2.846016e-02	0.0	3.076058e-02	2.813554e-02	0.0	3.137616e-02	2.780660e-02	0.0	3.198952e-02	2.747355e-02	0.0	3.260084e-02	2.713676e-02	0.0	3.321007e-02	2.679620e-02	0.0	3.381746e-02	2.645238e-02	0.0	3.442303e-02	2.610536e-02	0.0	3.502690e-02	2.575538e-02	0.0	3.562923e-02	2.540278e-02	0.0	3.623008e-02	2.504765e-02	0.0	3.682958e-02	2.469024e-02	0.0	3.742793e-02	2.433091e-02	0.0	3.802524e-02	2.396985e-02	0.0	3.862164e-02	2.360729e-02	0.0	3.921729e-02	2.324351e-02	0.0	3.981233e-02	2.287873e-02	0.0	4.040697e-02	2.251328e-02	0.0	4.100133e-02	2.214741e-02	0.0	4.159553e-02	2.178126e-02	0.0	4.218983e-02	2.141527e-02	0.0	4.278435e-02	2.104962e-02	0.0	4.337933e-02	2.068475e-02	0.0	4.397497e-02	2.032094e-02	0.0	4.457151e-02	1.995862e-02	0.0	4.516912e-02	1.959807e-02	0.0	4.576801e-02	1.923964e-02	0.0	4.636844e-02	1.888379e-02	0.0	4.697057e-02	1.853084e-02	0.0	4.757461e-02	1.818117e-02	0.0	4.818078e-02	1.783520e-02	0.0	4.878936e-02	1.749348e-02	0.0	4.940073e-02	1.715678e-02	0.0	5.001514e-02	1.682568e-02	0.0	5.063290e-02	1.650086e-02	0.0	5.125438e-02	1.618321e-02	0.0	5.187973e-02	1.587325e-02	0.0	5.250914e-02	1.557165e-02	0.0	5.314284e-02	1.527913e-02	0.0	5.378089e-02	1.499625e-02	0.0	5.442321e-02	1.472321e-02	0.0	5.506919e-02	1.445894e-02	0.0	5.571823e-02	1.420225e-02	0.0	5.636967e-02	1.395174e-02	0.0	5.702291e-02	1.370594e-02	0.0	5.767782e-02	1.346463e-02	0.0	5.833446e-02	1.322807e-02	0.0	5.899299e-02	1.299683e-02	0.0	5.965348e-02	1.277124e-02	0.0	6.031596e-02	1.255155e-02	0.0	6.098040e-02	1.233789e-02	0.0	6.164663e-02	1.212985e-02	0.0	6.231456e-02	1.192737e-02	0.0	6.298409e-02	1.173021e-02	0.0	6.365517e-02	1.153839e-02	0.0	6.432776e-02	1.135198e-02	0.0	6.500186e-02	1.117108e-02	0.0	6.567749e-02	1.099596e-02	0.0	6.635458e-02	1.082658e-02	0.0	6.703307e-02	1.066291e-02	0.0	6.771291e-02	1.050495e-02	0.0	6.839403e-02	1.035261e-02	0.0	6.907639e-02	1.020591e-02	0.0	6.975993e-02	1.006481e-02	0.0	7.044460e-02	9.929279e-03	0.0	7.113038e-02	9.799490e-03	0.0	7.181722e-02	9.675438e-03	0.0	7.250507e-02	9.557120e-03	0.0	7.319389e-02	9.444572e-03	0.0	7.388361e-02	9.337744e-03	0.0	7.457420e-02	9.236635e-03	0.0	7.526561e-02	9.141263e-03	0.0	7.595778e-02	9.051599e-03	0.0	7.665067e-02	8.967691e-03	0.0	7.734423e-02	8.889541e-03	0.0	7.803842e-02	8.817180e-03	0.0	7.873319e-02	8.750588e-03	0.0	7.942849e-02	8.689791e-03	0.0	8.012427e-02	8.634769e-03	0.0	8.082048e-02	8.585523e-03	0.0	8.151708e-02	8.542056e-03	0.0	8.221401e-02	8.504367e-03	0.0	8.291123e-02	8.472477e-03	0.0	8.360870e-02	8.446388e-03	0.0	8.430635e-02	8.426086e-03	0.0	8.500416e-02	8.411593e-03	0.0	8.570205e-02	8.402897e-03	0.0	8.709221e-02	8.402858e-03	0.0	8.778438e-02	8.411426e-03	0.0	8.847645e-02	8.425670e-03	0.0	8.916839e-02	8.445611e-03	0.0	8.986013e-02	8.471270e-03	0.0	9.055164e-02	8.502673e-03	0.0	9.124286e-02	8.539793e-03	0.0	9.193376e-02	8.582569e-03	0.0	9.262429e-02	8.630931e-03	0.0	9.331440e-02	8.684935e-03	0.0	9.400403e-02	8.744721e-03	0.0	9.469312e-02	8.810405e-03	0.0	9.538165e-02	8.881788e-03	0.0	9.606959e-02	8.958634e-03	0.0	9.675692e-02	9.040832e-03	0.0	9.744352e-02	9.128811e-03	0.0	9.812928e-02	9.223137e-03	0.0	9.881424e-02	9.323147e-03	0.0	9.949874e-02	9.426253e-03	0.0	1.001832e-01	9.529738e-03	0.0	1.008679e-01	9.631679e-03	0.0	1.015529e-01	9.731212e-03	0.0	1.022384e-01	9.827426e-03	0.0	1.029243e-01	9.920508e-03	0.0	1.036106e-01	1.001079e-02	0.0	1.042973e-01	1.009856e-02	0.0	1.049842e-01	1.018373e-02	0.0	1.056715e-01	1.026597e-02	0.0	1.063592e-01	1.034501e-02	0.0	1.070473e-01	1.042097e-02	0.0	1.077357e-01	1.049383e-02	0.0	1.084243e-01	1.056376e-02	0.0	1.091133e-01	1.063061e-02	0.0	1.098026e-01	1.069432e-02	0.0	1.104922e-01	1.075474e-02	0.0	1.111820e-01	1.081206e-02	0.0	1.118721e-01	1.086614e-02	0.0	1.125625e-01	1.091712e-02	0.0	1.132531e-01	1.096475e-02	0.0	1.139438e-01	1.100911e-02	0.0	1.146348e-01	1.105022e-02	0.0	1.153260e-01	1.108805e-02	0.0	1.160174e-01	1.112262e-02	0.0	1.167089e-01	1.115388e-02	0.0	1.174006e-01	1.118188e-02	0.0	1.180923e-01	1.120656e-02	0.0	1.187842e-01	1.122798e-02	0.0	1.194762e-01	1.124607e-02	0.0	1.201683e-01	1.126081e-02	0.0	1.208604e-01	1.127236e-02	0.0	1.215526e-01	1.128059e-02	0.0	1.222448e-01	1.128542e-02	0.0	6.967742e-04	0.000000e+00	0.0	1.393548e-03	0.000000e+00	0.0	2.090323e-03	0.000000e+00	0.0	2.787097e-03	0.000000e+00	0.0	3.483871e-03	0.000000e+00	0.0	4.180645e-03	0.000000e+00	0.0	4.877419e-03	0.000000e+00	0.0	5.574194e-03	0.000000e+00	0.0	6.270968e-03	0.000000e+00	0.0	6.967742e-03	0.000000e+00	0.0	7.664516e-03	0.000000e+00	0.0	8.361290e-03	0.000000e+00	0.0	9.058065e-03	0.000000e+00	0.0	9.754839e-03	0.000000e+00	0.0	1.045161e-02	0.000000e+00	0.0	1.114839e-02	0.000000e+00	0.0	1.184516e-02	0.000000e+00	0.0	1.254194e-02	0.000000e+00	0.0	1.323871e-02	0.000000e+00	0.0	1.393548e-02	0.000000e+00	0.0	1.463226e-02	0.000000e+00	0.0	1.532903e-02	0.000000e+00	0.0	1.602581e-02	0.000000e+00	0.0	1.672258e-02	0.000000e+00	0.0	1.741935e-02	0.000000e+00	0.0	1.811613e-02	0.000000e+00	0.0	1.881290e-02	0.000000e+00	0.0	1.950968e-02	0.000000e+00	0.0	2.020645e-02	0.000000e+00	0.0	2.090323e-02	0.000000e+00	0.0	2.160000e-02	0.000000e+00	0.0	2.229677e-02	0.000000e+00	0.0	2.299355e-02	0.000000e+00	0.0	2.369032e-02	0.000000e+00	0.0	2.438710e-02	0.000000e+00	0.0	2.508387e-02	0.000000e+00	0.0	2.578065e-02	0.000000e+00	0.0	2.647742e-02	0.000000e+00	0.0	2.717419e-02	0.000000e+00	0.0	2.787097e-02	0.000000e+00	0.0	2.856774e-02	0.000000e+00	0.0	2.926452e-02	0.000000e+00	0.0	2.996129e-02	0.000000e+00	0.0	3.065806e-02	0.000000e+00	0.0	3.135484e-02	0.000000e+00	0.0	3.205161e-02	0.000000e+00	0.0	3.274839e-02	0.000000e+00	0.0	3.344516e-02	0.000000e+00	0.0	3.414194e-02	0.000000e+00	0.0	3.483871e-02	0.000000e+00	0.0	3.553548e-02	0.000000e+00	0.0	3.623226e-02	0.000000e+00	0.0	3.692903e-02	0.000000e+00	0.0	3.762581e-02	0.000000e+00	0.0	3.832258e-02	0.000000e+00	0.0	3.901935e-02	0.000000e+00	0.0	3.971613e-02	0.000000e+00	0.0	4.041290e-02	0.000000e+00	0.0	4.110968e-02	0.000000e+00	0.0	4.180645e-02	0.000000e+00	0.0	4.250323e-02	0.000000e+00	0.0	4.320000e-02	0.000000e+00	0.0	4.389677e-02	0.000000e+00	0.0	4.459355e-02	0.000000e+00	0.0	4.529032e-02	0.000000e+00	0.0	4.598710e-02	0.000000e+00	0.0	4.668387e-02	0.000000e+00	0.0	4.738065e-02	0.000000e+00	0.0	4.807742e-02	0.000000e+00	0.0	4.877419e-02	0.000000e+00	0.0	4.947097e-02	0.000000e+00	0.0	5.016774e-02	0.000000e+00	0.0	5.086452e-02	0.000000e+00	0.0	5.156129e-02	0.000000e+00	0.0	5.225806e-02	0.000000e+00	0.0	5.295484e-02	0.000000e+00	0.0	5.365161e-02	0.000000e+00	0.0	5.434839e-02	0.000000e+00	0.0	5.504516e-02	0.000000e+00	0.0	5.574194e-02	0.000000e+00	0.0	5.643871e-02	0.000000e+00	0.0	5.713548e-02	0.000000e+00	0.0	5.783226e-02	0.000000e+00	0.0	5.852903e-02	0.000000e+00	0.0	5.922581e-02	0.000000e+00	0.0	5.992258e-02	0.000000e+00	0.0	6.061935e-02	0.000000e+00	0.0	6.131613e-02	0.000000e+00	0.0	6.201290e-02	0.000000e+00	0.0	6.270968e-02	0.000000e+00	0.0	6.340645e-02	0.000000e+00	0.0	6.410323e-02	0.000000e+00	0.0	6.480000e-02	0.000000e+00	0.0	6.549677e-02	0.000000e+00	0.0	6.619355e-02	0.000000e+00	0.0	6.689032e-02	0.000000e+00	0.0	6.758710e-02	0.000000e+00	0.0	6.828387e-02	0.000000e+00	0.0	6.898065e-02	0.000000e+00	0.0	6.967742e-02	0.000000e+00	0.0	7.037419e-02	0.000000e+00	0.0	7.107097e-02	0.000000e+00	0.0	7.176774e-02	0.000000e+00	0.0	7.246452e-02	0.000000e+00	0.0	7.316129e-02	0.000000e+00	0.0	7.385806e-02	0.000000e+00	0.0	7.455484e-02	0.000000e+00	0.0	7.525161e-02	0.000000e+00	0.0	7.594839e-02	0.000000e+00	0.0	7.664516e-02	0.000000e+00	0.0	7.734194e-02	0.000000e+00	0.0	7.803871e-02	0.000000e+00	0.0	7.873548e-02	0.000000e+00	0.0	7.943226e-02	0.000000e+00	0.0	8.012903e-02	0.000000e+00	0.0	8.082581e-02	0.000000e+00	0.0	8.152258e-02	0.000000e+00	0.0	8.221935e-02	0.000000e+00	0.0	8.291613e-02	0.000000e+00	0.0	8.361290e-02	0.000000e+00	0.0	8.430968e-02	0.000000e+00	0.0	8.500645e-02	0.000000e+00	0.0	8.570323e-02	0.000000e+00	0.0	8.708938e-02	0.000000e+00	0.0	8.777875e-02	0.000000e+00	0.0	8.846813e-02	0.000000e+00	0.0	8.915751e-02	0.000000e+00	0.0	8.984689e-02	0.000000e+00	0.0	9.053626e-02	0.000000e+00	0.0	9.122564e-02	0.000000e+00	0.0	9.191502e-02	0.000000e+00	0.0	9.260440e-02	0.000000e+00	0.0	9.329377e-02	0.000000e+00	0.0	9.398315e-02	0.000000e+00	0.0	9.467253e-02	0.000000e+00	0.0	9.536191e-02	0.000000e+00	0.0	9.605128e-02	0.000000e+00	0.0	9.674066e-02	0.000000e+00	0.0	9.743004e-02	0.000000e+00	0.0	9.811942e-02	0.000000e+00	0.0	9.880879e-02	0.000000e+00	0.0	9.949817e-0
[...]
POINT_DATA 14328

SCALARS Conservative_1 float 1
LOOKUP_TABLE default
7.213290e+01	3.758332e+01	1.653954e+01	7.157451e+01	4.039004e+01	1.732747e+01	7.207962e+01	7.207040e+01	7.206678e+01	7.206520e+01	7.206373e+01	7.206226e+01	7.206079e+01	7.205935e+01	7.205779e+01	7.205606e+01	7.205403e+01	7.205173e+01	7.204914e+01	7.204622e+01	7.204290e+01	7.203920e+01	7.203521e+01	7.203098e+01	7.202644e+01	7.202147e+01	7.201577e+01	7.200926e+01	7.200196e+01	7.199406e+01	7.198582e+01	7.197724e+01	7.196804e+01	7.195784e+01	7.194616e+01	7.193279e+01	7.191777e+01	7.190136e+01	7.188394e+01	7.186577e+01	7.184689e+01	7.182714e+01	7.180625e+01	7.178387e+01	7.175960e+01	7.173318e+01	7.170450e+01	7.167360e+01	7.164066e+01	7.160585e+01	7.156927e+01	7.153116e+01	7.149152e+01	7.145015e+01	7.140698e+01	7.136164e+01	7.131390e+01	7.126354e+01	7.121019e+01	7.115369e+01	7.109378e+01	7.103000e+01	7.096225e+01	7.089026e+01	7.081366e+01	7.073214e+01	7.064533e+01	7.055290e+01	7.045446e+01	7.034925e+01	7.023692e+01	7.011707e+01	6.998924e+01	6.985321e+01	6.970851e+01	6.955469e+01	6.939094e+01	6.921690e+01	6.903173e+01	6.883416e+01	6.862332e+01	6.839879e+01	6.816112e+01	6.791109e+01	6.764992e+01	6.737894e+01	6.710132e+01	6.681971e+01	6.654120e+01	6.627498e+01	6.602119e+01	6.578172e+01	6.554281e+01	6.529260e+01	6.501799e+01	6.471261e+01	6.438338e+01	6.403604e+01	6.367694e+01	6.330918e+01	6.293211e+01	6.254440e+01	6.213881e+01	6.171522e+01	6.127019e+01	6.080509e+01	6.032266e+01	5.982484e+01	5.931351e+01	5.878587e+01	5.824110e+01	5.767883e+01	5.709713e+01	5.649499e+01	5.587279e+01	5.523212e+01	5.457532e+01	5.390187e+01	5.321149e+01	5.250449e+01	5.178014e+01	5.103861e+01	5.028091e+01	4.950690e+01	4.871912e+01	4.791743e+01	4.710355e+01	4.627746e+01	4.544070e+01	4.459318e+01	4.373590e+01	4.287031e+01	4.199821e+01	4.112089e+01	4.023913e+01	3.935422e+01	3.846881e+01	3.670320e+01	3.582757e+01	3.495300e+01	3.407891e+01	3.320877e+01	3.234722e+01	3.149963e+01	3.066535e+01	2.983667e+01	2.900559e+01	2.817831e+01	2.737189e+01	2.659952e+01	2.584578e+01	2.507676e+01	2.428517e+01	2.352798e+01	2.291084e+01	2.249759e+01	2.223679e+01	2.204991e+01	2.191034e+01	2.177311e+01	2.160555e+01	2.141245e+01	2.121307e+01	2.102727e+01	2.085541e+01	2.067927e+01	2.049553e+01	2.030234e+01	2.011030e+01	1.992466e+01	1.974414e+01	1.956033e+01	1.937698e+01	1.919306e+01	1.901500e+01	1.883884e+01	1.865895e+01	1.847860e+01	1.829601e+01	1.811321e+01	1.792912e+01	1.774812e+01	1.757147e+01	1.740435e+01	1.725093e+01	1.710988e+01	1.699791e+01	1.692487e+01	1.683193e+01	7.157325e+01	7.157180e+01	7.156896e+01	7.156548e+01	7.156099e+01	7.155591e+01	7.155008e+01	7.154353e+01	7.153583e+01	7.152760e+01	7.151904e+01	7.150904e+01	7.149838e+01	7.148722e+01	7.147526e+01	7.146260e+01	7.144919e+01	7.143488e+01	7.141988e+01	7.140409e+01	7.138695e+01	7.136944e+01	7.135105e+01	7.133168e+01	7.131147e+01	7.129013e+01	7.126809e+01	7.124523e+01	7.122086e+01	7.119559e+01	7.116951e+01	7.114153e+01	7.111268e+01	7.108287e+01	7.105104e+01	7.101809e+01	7.098330e+01	7.094738e+01	7.090969e+01	7.086986e+01	7.082863e+01	7.078524e+01	7.073982e+01	7.069190e+01	7.064198e+01	7.058978e+01	7.053468e+01	7.047702e+01	7.041643e+01	7.035292e+01	7.028540e+01	7.021544e+01	7.014128e+01	7.006398e+01	6.998220e+01	6.989613e+01	6.980587e+01	6.971066e+01	6.961051e+01	6.950539e+01	6.939467e+01	6.927855e+01	6.915609e+01	6.902767e+01	6.889250e+01	6.875097e+01	6.860202e+01	6.844567e+01	6.828233e+01	6.811002e+01	6.793034e+01	6.774216e+01	6.754468e+01	6.733872e+01	6.712288e+01	6.689751e+01	6.666227e+01	6.641644e+01	6.616011e+01	6.589290e+01	6.561427e+01	6.532429e+01	6.502215e+01	6.470779e+01	6.438049e+01	6.404000e+01	6.368658e+01	6.331903e+01	6.293765e+01	6.254142e+01	6.213077e+01	6.170565e+01	6.126420e+01	6.080782e+01	6.033611e+01	5.984831e+01	5.934480e+01	5.882365e+01	5.828724e+01	5.773496e+01	5.716598e+01	5.658023e+01	5.597891e+01	5.536171e+01	5.472714e+01	5.407800e+01	5.341167e+01	5.273319e+01	5.203919e+01	5.133150e+01	5.061140e+01	4.987854e+01	4.913481e+01	4.837753e+01	4.761200e+01	4.683332e+01	4.605025e+01	4.525712e+01	4.445546e+01	4.364904e+01	4.283988e+01	4.202651e+01	4.121262e+01	3.958050e+01	3.876434e+01	3.795466e+01	3.715291e+01	3.635828e+01	3.555929e+01	3.476049e+01	3.397213e+01	3.319295e+01	3.242411e+01	3.165630e+01	3.090298e+01	3.015800e+01	2.942888e+01	2.870820e+01	2.799845e+01	2.731093e+01	2.662255e+01	2.595059e+01	2.528526e+01	2.463250e+01	2.400460e+01	2.338653e+01	2.278671e+01	2.220488e+01	2.162867e+01	2.106311e+01	2.048949e+01	1.993126e+01	1.939289e+01	1.888629e+01	1.842289e+01	1.803091e+01	1.770682e+01	1.748009e+01	1.731811e+01	1.724276e+01	1.724467e+01	1.725941e+01	1.729039e+01	1.731734e+01	1.732883e+01	1.733018e+01	1.733118e+01	1.732787e+01	1.732631e+01	1.732617e+01	1.732608e+01	1.732589e+01	1.732548e+01	1.732544e+01	1.732596e+01	7.157497e+01	7.157627e+01	7.157718e+01	7.157958e+01	7.158185e+01	7.158489e+01	7.158864e+01	7.159260e+01	7.159720e+01	7.160250e+01	7.160821e+01	7.161424e+01	7.162108e+01	7.162817e+01	7.163563e+01	7.164380e+01	7.165239e+01	7.166132e+01	7.167071e+01	7.168037e+01	7.169050e+01	7.170129e+01	7.171190e+01	7.172321e+01	7.173453e+01	7.174658e+01	7.175858e+01	7.177093e+01	7.178340e+01	7.179619e+01	7.180926e+01	7.182242e+01	7.183577e+01	7.184918e+01	7.186280e+01	7.187638e+01	7.189034e+01	7.190409e+01	7.191795e+01	7.193199e+01	7.194591e+01	7.195988e+01	7.197331e+01	7.198703e+01	7.200217e+01	7.202124e+01	7.202696e+01	7.201826e+01	7.204995e+01	7.205356e+01	7.206171e+01	7.206847e+01	7.207500e+01	7.208108e+01	7.208682e+01	7.209222e+01	7.209732e+01	7.210213e+01	7.210663e+01	7.211081e+01	7.211466e+01	7.211815e+01	7.212129e+01	7.212407e+01	7.212654e+01	7.212874e+01	7.213071e+01	7.213251e+01	7.213418e+01	7.213576e+01	7.213728e+01	7.213876e+01	7.214021e+01	7.214161e+01	7.214292e+01	7.214410e+01	7.214509e+01	7.214586e+01	7.214637e+01	7.214660e+01	7.214655e+01	7.214624e+01	7.214568e+01	7.214491e+01	7.214396e+01	7.214288e+01	7.214171e+01	7.214048e+01	7.213923e+01	7.213801e+01	7.213685e+01	7.213580e+01	7.213489e+01	7.213412e+01	7.213352e+01	1.732844e+01	1.732993e+01	1.733154e+01	1.733259e+01	1.733311e+01	1.733313e+01	1.733241e+01	1.733045e+01	1.732501e+01	1.731686e+01	1.730514e+01	1.729458e+01	1.730422e+01	1.731768e+01	1.733595e+01	1.735748e+01	1.737893e+01	1.739793e+01	1.741304e+01	1.742366e+01	1.742955e+01	1.742953e+01	1.742224e+01	1.740861e+01	1.739113e+01	1.737174e+01	1.735178e+01	1.733166e+01	1.731043e+01	1.728646e+01	1.725814e+01	1.722443e+01	1.718526e+01	1.714169e+01	1.709550e+01	1.704882e+01	1.700362e+01	1.696124e+01	1.692233e+01	1.688699e+01	1.685575e+01	1.682848e+01	1.680433e+01	1.678260e+01	1.676274e+01	1.674430e+01	1.672686e+01	1.671004e+01	1.669340e+01	1.667650e+01	1.665889e+01	1.664016e+01	1.661999e+01	1.659830e+01	1.657553e+01	1.655354e+01	1.653635e+01	1.653105e+01	1.653723e+01	1.654077e+01	3.756830e+01	3.754508e+01	3.753064e+01	3.754556e+01	3.757858e+01	3.761975e+01	3.766404e+01	3.770915e+01	3.775424e+01	3.779910e+01	3.784380e+01	3.788859e+01	3.793375e+01	3.797947e+01	3.802584e+01	3.807275e+01	3.811989e+01	3.816681e+01	3.821291e+01	3.825757e+01	3.830018e+01	3.834023e+01	3.837740e+01	3.841155e+01	3.844279e+01	3.847141e+01	3.849791e+01	3.852290e+01	3.854708e+01	3.857113e+01	3.859567e+01	3.862132e+01	3.864876e+01	3.867760e+01	3.870657e+01	3.873663e+01	3.877016e+01	3.880828e+01	3.885146e+01	3.890026e+01	3.895528e+01	3.901714e+01	3.908642e+01	3.916365e+01	3.924920e+01	3.934330e+01	3.944607e+01	3.955685e+01	7.207974e+01	7.207984e+01	7.207999e+01	7.208018e+01	7.208044e+01	7.208079e+01	7.208124e+01	7.208179e+01	7.208246e+01	7.208325e+01	7.208416e+01	7.208517e+01	7.208627e+01	7.208743e+01	7.208861e+01	7.208976e+01	7.209085e+01	7.209180e+01	7.209258e+01	7.209314e+01	7.209348e+01	7.209360e+01	7.209353e+01	7.209332e+01	7.209303e+01	7.209272e+01	7.209243e+01	7.209218e+01	7.209196e+01	7.209175e+01	7.209149e+01	7.209114e+01	7.209066e+01	7.209001e+01	7.208917e+01	7.208813e+01	7.208686e+01	7.208534e+01	7.208352e+01	7.208134e+01	7.207873e+01	7.207563e+01	7.207199e+01	7.206777e+01	7.206312e+01	7.205795e+01	7.205273e+01	7.204368e+01	7.207040e+01	7.207046e+01	7.207054e+01	7.207065e+01	7.207080e+01	7.207098e+01	7.207121e+01	7.207151e+01	7.207187e+01	7.207231e+01	7.207286e+01	7.207351e+01	7.207429e+01	7.207521e+01	7.207626e+01	7.207743e+01	7.207870e+01	7.208002e+01	7.208132e+01	7.208254e+01	7.208359e+01	7.208442e+01	7.208496e+01	7.208522e+01	7.208521e+01	7.208500e+01	7.208465e+01	7.208425e+01	7.208386e+01	7.208349e+01	7.208314e+01	7.208277e+01	7.208233e+01	7.208177e+01	7.208106e+01	7.208018e+01	7.207912e+01	7.207785e+01	7.207635e+01	7.207458e+01	7.207247e+01	7.206993e+01	7.206689e+01	7.206329e+01	7.205910e+01	7.205417e+01	7.204821e+01	7.204046e+01	7.206678e+01	7.206685e+01	7.206693e+01	7.206703e+01	7.206717e+01	7.206735e+01	7.206756e+01	7.206781e+01	7.206810e+01	7.206844e+01	7.206884e+01	7.206930e+01	7.206984e+01	7.207048e+01	7.207124e+01	7.207213e+01	7.207316e+01	7.207434e+01	7.207563e+01	7.207698e+01	7.207832e+01	7.207957e+01	7.208062e+01	7.208141e+01	7.208188e+01	7.208202e+01	7.208187e+01	7.208151e+01	7.208102e+01	7.208049e+01	7.207997e+01	7.207945e+01	7.207892e+01	7.207831e+01	7.207757e+01	7.207666e+01	7.207557e+01	7.207426e+01	7.207274e+01	7.207097e+01	7.206890e+01	7.206646e+01	7.206358e+01	7.206019e+01	7.205623e+01	7.205155e+01	7.204587e+01	7.203912e+01	7.206521e+01	7.206527e+01	7.206534e+01	7.206544e+01	7.206557e+01	7.206574e+01	7.206594e+01	7.206618e+01	7.206646e+01	7.206677e+01	7.206713e+01	7.206753e+01	7.206797e+01	7.206848e+01	7.206906e+01	7.206974e+01	7.207053e+01	7.207147e+01	7.207254e+01	7.207375e+01	7.207506e+01	7.207641e+01	7.207770e+01	7.207885e+01	7.207974e+01	7.208031e+01	7.208052e+01	7.208039e+01	7.207998e+01	7.207941e+01	7.207875e+01	7.207807e+01	7.207739e+01	7.207666e+01	7.207585e+01	7.207488e+01	7.207371e+01	7.207231e+01	7.207068e+01	7.206879e+01	7.206661e+01	7.206407e+01	7.206113e+01	7.205769e+01	7.205368e+01	7.204896e+01	7.204331e+01	7.203662e+01	7.206375e+01	7.206380e+01	7.206386e+01	7.206396e+01	7.206408e+01	7.206423e+01	7.206442e+01	7.206464e+01	7.206490e+01	7.206520e+01	7.206553e+01	7.206590e+01	7.206631e+01	7.206676e+01	7.206726e+01	7.206782e+01	7.206847e+01	7.206923e+01	7.207011e+01	7.207112e+01	7.207228e+01	7.207354e+01	7.207486e+01	7.207616e+01	7.207732e+01	7.207824e+01	7.207882e+01	7.207904e+01	7.207888e+01	7.207842e+01	7.207775e+01	7.207698e+01	7.207617e+01	7.207533e+01	7.207444e+01	7.207342e+01	7.207222e+01	7.207078e+01	7.206909e+01	7.206711e+01	7.206484e+01	7.206222e+01	7.205920e+01	7.205571e+01	7.205164e+01	7.204687e+01	7.204125e+01	7.203463e+01	7.206228e+01	7.206233e+01	7.206239e+01	7.206247e+01	7.206259e+01	7.206273e+01	7.206290e+01	7.206311e+01	7.206336e+01	7.206364e+01	7.206395e+01	7.206430e+01	7.206468e+01	7.206510e+01	7.206555e+01	7.206606e+01	7.206662e+01	7.206726e+01	7.206800e+01	7.206886e+01	7.206985e+01	7.207098e+01	7.207221e+01	7.207351e+01	7.207477e+01	7.207590e+01	7.207679e+01	7.207733e+01	7.207749e+01	7.207725e+01	7.207670e+01	7.207593e+01	7.207504e+01	7.207410e+01	7.207311e+01	7.207204e+01	7.207081e+01	7.206935e+01	7.206763e+01	7.206560e+01	7.206326e+01	7.206057e+01	7.205748e+01	7.205392e+01	7.204979e+01	7.204497e+01	7.203929e+01	7.203280e+01	7.206082e+01	7.206087e+01	7.206093e+01	7.206101e+01	7.206111e+01	7.206125e+01	7.206142e+01	7.206161e+01	7.206185e+01	7.206211e+01	7.206241e+01	7.206274e+01	7.206309e+01	7.206348e+01	7.206391e+01	7.206437e+01	7.206488e+01	7.206544e+01	7.206609e+01	7.206683e+01	7.206769e+01	7.206867e+01	7.206979e+01	7.207100e+01	7.207226e+01	7.207348e+01	7.207455e+01	7.207536e+01	7.207580e+01	7.207584e+01	7.207548e+01	7.207480e+01	7.207390e+01	7.207288e+01	7.207179e+01	7.207064e+01	7.206936e+01	7.206788e+01	7.206613e+01	7.206407e+01	7.206167e+01	7.205891e+01	7.205574e+01	7.205210e+01	7.204789e+01	7.204298e+01	7.203722e+01	7.203065e+01	7.205939e+01	7.205943e+01	7.205949e+01	7.205956e+01	7.205966e+01	7.205979e+01	7.205995e+01	7.206014e+01	7.206036e+01	7.206061e+01	7.206089e+01	7.206121e+01	7.206155e+01	7.206191e+01	7.206231e+01	7.206274e+01	7.206321e+01	7.206372e+01	7.206429e+01	7.206495e+01	7.206570e+01	7.206656e+01	7.206755e+01	7.206866e+01	7.206986e+01	7.207108e+01	7.207224e+01	7.207321e+01	7.207389e+01	7.207418e+01	7.207405e+01	7.207352e+01	7.207268e+01	7.207163e+01	7.207046e+01	7.206921e+01	7.206786e+01	7.206634e+01	7.206457e+01	7.206248e+01	7.206004e+01	7.205722e+01	7.205397e+01	7.205025e+01	7.204596e+01	7.204097e+01	7.203515e+01	7.202854e+01	7.205785e+01	7.205788e+01	7.205794e+01	7.205801e+01	7.205811e+01	7.205823e+01	7.205838e+01	7.205856e+01	7.205877e+01	7.205902e+01	7.205928e+01	7.205958e+01	7.205991e+01	7.206026e+01	7.206063e+01	7.206104e+01	7.206147e+01	7.206195e+01	7.206247e+01	7.206305e+01	7.206372e+01	7.206448e+01	7.206536e+01	7.206637e+01	7.206748e+01	7.206865e+01	7.206982e+01	7.207089e+01	7.207174e+01	7.207224e+01	7.207234e+01	7.207200e+01	7.207127e+01	7.207024e+01	7.206902e+01	7.206768e+01	7.206624e+01	7.206466e+01	7.206285e+01	7.206073e+01	7.205825e+01	7.205537e+01	7.205205e+01	7.204824e+01	7.204385e+01	7.203877e+01	7.203287e+01	7.202608e+01	7.205613e+01	7.205616e+01	7.205621e+01	7.205628e+01	7.205638e+01	7.205649e+01	7.205664e+01	7.205681e+01	7.205702e+01	7.205725e+01	7.205751e+01	7.205780e+01	7.205811e+01	7.205845e+01	7.205881e+01	7.205919e+01	7.205961e+01	7.206005e+01	7.206053e+01	7.206107e+01	7.206167e+01	7.206235e+01	7.206314e+01	7.206404e+01	7.206506e+01	7.206617e+01	7.206731e+01	7.206841e+01	7.206936e+01	7.207004e+01	7.207033e+01	7.207019e+01	7.206961e+01	7.206865e+01	7.206742e+01	7.206602e+01	7.206449e+01	7.206283e+01	7.206097e+01	7.205883e+01	7.205632e+01	7.205339e+01	7.205000e+01	7.204612e+01	7.204165e+01	7.203650e+01	7.203052e+01	7.202370e+01	7.205412e+01	7.205415e+01	7.205420e+01	7.205427e+01	7.205436e+01	7.205448e+01	7.205462e+01	7.205479e+01	7.205499e+01	7.205521e+01	7.205547e+01	7.205575e+01	7.205605e+01	7.205638e+01	7.205673e+01	7.205710e+01	7.205750e+01	7.205793e+01	7.205838e+01	7.205888e+01	7.205943e+01	7.206005e+01	7.206076e+01	7.206158e+01	7.206251e+01	7.206354e+01	7.206463e+01	7.206573e+01	7.206673e+01	7.206752e+01	7.206799e+01	7.206803e+01	7.206761e+01	7.206676e+01	7.206557e+01	7.206413e+01	7.206253e+01	7.206079e+01	7.205886e+01	7.205667e+01	7.205413e+01	7.205116e+01	7.204771e+01	7.204374e+01	7.203918e+01	7.203394e+01	7.202786e+01	7.202090e+01	7.205184e+01	7.205186e+01	7.205191e+01	7.205198e+01	7.205207e+01	7.205218e+01	7.205232e+01	7.205249e+01	7.205268e+01	7.205290e+01	7.205315e+01	7.205343e+01	7.205372e+01	7.205404e+01	7.205439e+01	7.205475e+01	7.205514e+01	7.205555e+01	7.205598e+01	7.205645e+01	7.205697e+01	7.205754e+01	7.205819e+01	7.205893e+01	7.205978e+01	7.206073e+01	7.206177e+01	7.206284e+01	7.206386e+01	7.206472e+01	7.206531e+01	7.206551e+01	7.206526e+01	7.206454e+01	7.206342e+01	7.206198e+01	7.206032e+01	7.205850e+01	7.205650e+01	7.205426e+01	7.205168e+01	7.204867e+01	7.204517e+01	7.204113e+01	7.203649e+01	7.203116e+01	7.202499e+01	7.201796e+01	7.204927e+01	7.204929e+01	7.204934e+01	7.204941e+01	7.204950e+01	7.204961e+01	7.204974e+01	7.204991e+01	7.205010e+01	7.205031e+01	7.205056e+01	7.205082e+01	7.205112e+01	7.205143e+01	7.205177e+01	7.205212e+01	7.205250e+01	7.205290e+01	7.205332e+01	7.205377e+01	7.205426e+01	7.205479e+01	7.205539e+01	7.205607e+01	7.205685e+01	7.205773e+01	7.205870e+01	7.205972e+01	7.206074e+01	7.206164e+01	7.206232e+01	7.206265e+01	7.206255e+01	7.206197e+01	7.206094e+01	7.205953e+01	7.205784e+01	7.205594e+01	7.205387e+01	7.205156e+01	7.204893e+01	7.204589e+01	7.204234e+01	7.203824e+01	7.203352e+01	7.202810e+01	7.202183e+01	7.201469e+01	7.204637e+01	7.204638e+01	7.204644e+01	7.204650e+01	7.204659e+01	7.204670e+01	7.204683e+01	7.204699e+01	7.204718e+01	7.204739e+01	7.204763e+01	7.204789e+01	7.204818e+01	7.204849e+01	7.204882e+01	7.204917e+01	7.204954e+01	7.204993e+01	7.205034e+01	7.205078e+01	7.205125e+01	7.205175e+01	7.205231e+01	7.205294e+01	7.205366e+01	7.205447e+01	7.205537e+01	7.205635e+01	7.205733e+01	7.205825e+01	7.205899e+01	7.205943e+01	7.205946e+01	7.205901e+01	7.205808e+01	7.205672e+01	7.205502e+01	7.205308e+01	7.205092e+01	7.204855e+01	7.204587e+01	7.204278e+01	7.203919e+01	7.203502e+01	7.203022e+01	7.202470e+01	7.201834e+01	7.201110e+01	7.204307e+01	7.204308e+01	7.204313e+01	7.204320e+01	7.204328e+01	7.204339e+01	7.204352e+01	7.204368e+01	7.204387e+01	7.204408e+01	7.204431e+01	7.204457e+01	7.204486e+01	7.204516e+01	7.204549e+01	7.204584e+01	7.204621e+01	7.204659e+01	7.204700e+01	7.204742e+01	7.204787e+01	7.204836e+01	7.204889e+01	7.204948e+01	7.205015e+01	7.205090e+01	7.205174e+01	7.205266e+01	7.205361e+01	7.205453e+01	7.205530e+01	7.205582e+01	7.205596e+01	7.205564e+01	7.205482e+01	7.205353e+01	7.205185e+01	7.204986e+01	7.204764e+01	7.204519e+01	7.204244e+01	7.203931e+01	7.203567e+01	7.203145e+01	7.202657e+01	7.202096e+01	7.201451e+01	7.200715e+01	7.203939e+01	7.203939e+01	7.203945e+01	7.203951e+01	7.203960e+01	7.203971e+01	7.203984e+01	7.204000e+01	7.204018e+01	7.204039e+01	7.204063e+01	7.204089e+01	7.204117e+01	7.204147e+01	7.204180e+01	7.204214e+01	7.204251e+01	7.204289e+01	7.204329e+01	7.204371e+01	7.204415e+01	7.204462e+01	7.204513e+01	7.204569e+01	7.204631e+01	7.204702e+01	7.204781e+01	7.204867e+01	7.204958e+01	7.205048e+01	7.205127e+01	7.205184e+01	7.205207e+01	7.205186e+01	7.205115e+01	7.204993e+01	7.204828e+01	7.204627e+01	7.204399e+01	7.204147e+01	7.203865e+01	7.203546e+01	7.203177e+01	7.202750e+01	7.202254e+01	7.201686e+01	7.201030e+01	7.200290e+01	7.203543e+01	7.203543e+01	7.203548e+01	7.203554e+01	7.203563e+01	7.203573e+01	7.203586e+01	7.203602e+01	7.203620e+01	7.203641e+01	7.203664e+01	7.203690e+01	7.203718e+01	7.203748e+01	7.203780e+01	7.203814e+01	7.203850e+01	7.203888e+01	7.203928e+01	7.203969e+01	7.204013e+01	7.204058e+01	7.204107e+01	7.204160e+01	7.204219e+01	7.204285e+01	7.204359e+01	7.204440e+01	7.204526e+01	7.204613e+01	7.204691e+01	7.204752e+01	7.204781e+01	7.204769e+01	7.204708e+01	7.204595e+01	7.204433e+01	7.204232e+01	7.203999e+01	7.203739e+01	7.203450e+01	7.203124e+01	7.202750e+01	7.202317e+01	7.201816e+01	7.201239e+01	7.200572e+01	7.199820e+01	7.203122e+01	7.203121e+01	7.203126e+01	7.203132e+01	7.203140e+01	7.203151e+01	7.203164e+01	7.203179e+01	7.203197e+01	7.203217e+01	7.203240e+01	7.203265e+01	7.203292e+01	7.203322e+01	7.203353e+01	7.203387e+01	7.203423e+01	7.203460e+01	7.203499e+01	7.203539e+01	7.203582e+01	7.203626e+01	7.203673e+01	7.203723e+01	7.203778e+01	7.203839e+01	7.203908e+01	7.203983e+01	7.204064e+01	7.204147e+01	7.204224e+01	7.204285e+01	7.204319e+01	7.204313e+01	7.204260e+01	7.204154e+01	7.203997e+01	7.203796e+01	7.203558e+01	7.203291e+01	7.202994e+01	7.202660e+01	7.202280e+01	7.201841e+01	7.201332e+01	7.200746e+01	7.200069e+01	7.199307e+01	7.202670e+01	7.202669e+01	7.202674e+01	7.202680e+01	7.202688e+01	7.202698e+01	7.202710e+01	7.202725e+01	7.202743e+01	7.202762e+01	7.202784e+01	7.202809e+01	7.202835e+01	7.202864e+01	7.202895e+01	7.202927e+01	7.202962e+01	7.202998e+01	7.203036e+01	7.203075e+01	7.203116e+01	7.203158e+01	7.203203e+01	7.203250e+01	7.203302e+01	7.203358e+01	7.203422e+01	7.203491e+01	7.203567e+01	7.203644e+01	7.203717e+01	7.203778e+01	7.203814e+01	7.203813e+01	7.203766e+01	7.203666e+01	7.203514e+01	7.203313e+01	7.203072e+01	7.202798e+01	7.202492e+01	7.202151e+01	7.201763e+01	7.201318e+01	7.200802e+01	7.200208e+01	7.199521e+01	7.198748e+01	7.202175e+01	7.202173e+01	7.202178e+01	7.202183e+01	7.202191e+01	7.202200e+01	7.202212e+01	7.202226e+01	7.202243e+01	7.202262e+01	7.202283e+01	7.202307e+01	7.202332e+01	7.202360e+01	7.202390e+01	7.202422e+01	7.202455e+01	7.202490e+01	7.202527e+01	7.202565e+01	7.202604e+01	7.202645e+01	7.202688e+01	7.202733e+01	7.202781e+01	7.202834e+01	7.202892e+01	7.202956e+01	7.203025e+01	7.203098e+01	7.203167e+01	7.203225e+01	7.203262e+01	7.203264e+01	7.203222e+01	7.203128e+01	7.202979e+01	7.202780e+01	7.202536e+01	7.202256e+01	7.201942e+01	7.201592e+01	7.201197e+01	7.200744e+01	7.200222e+01	7.199619e+01	7.198921e+01	7.198140e+01	7.201609e+01	7.201606e+01	7.201611e+01	7.201616e+01	7.201624e+01	7.201633e+01	7