# vtk DataFile Version 3.0
vtk output
ASCII
DATASET UNSTRUCTURED_GRID
POINTS 11393 float
0.000000e+00	3.600000e-02	0.0	8.640000e-02	8.400000e-03	0.0	1.229370e-01	1.128710e-02	0.0	0.000000e+00	0.000000e+00	0.0	8.640000e-02	0.000000e+00	0.0	1.229370e-01	0.000000e+00	0.0	4.979972e-04	3.599850e-02	0.0	9.959753e-04	3.599398e-02	0.0	1.493915e-03	3.598634e-02	0.0	1.991795e-03	3.597547e-02	0.0	2.489592e-03	3.596130e-02	0.0	2.987286e-03	3.594386e-02	0.0	3.484845e-03	3.592294e-02	0.0	3.982243e-03	3.589850e-02	0.0	4.479452e-03	3.587047e-02	0.0	4.976438e-03	3.583873e-02	0.0	5.473176e-03	3.580332e-02	0.0	5.969633e-03	3.576417e-02	0.0	6.465770e-03	3.572116e-02	0.0	6.961558e-03	3.567429e-02	0.0	7.456953e-03	3.562344e-02	0.0	7.951916e-03	3.556854e-02	0.0	8.446427e-03	3.550970e-02	0.0	8.940430e-03	3.544676e-02	0.0	9.433885e-03	3.537964e-02	0.0	9.926771e-03	3.530846e-02	0.0	1.041902e-02	3.523303e-02	0.0	1.091061e-02	3.515337e-02	0.0	1.140150e-02	3.506955e-02	0.0	1.189165e-02	3.498147e-02	0.0	1.238100e-02	3.488909e-02	0.0	1.286953e-02	3.479244e-02	0.0	1.335720e-02	3.469151e-02	0.0	1.384398e-02	3.458642e-02	0.0	1.432979e-02	3.447693e-02	0.0	1.481464e-02	3.436324e-02	0.0	1.529848e-02	3.424534e-02	0.0	1.578126e-02	3.412317e-02	0.0	1.626295e-02	3.399676e-02	0.0	1.674353e-02	3.386620e-02	0.0	1.722296e-02	3.373152e-02	0.0	1.770121e-02	3.359266e-02	0.0	1.817824e-02	3.344968e-02	0.0	1.865404e-02	3.330266e-02	0.0	1.912860e-02	3.315166e-02	0.0	1.960185e-02	3.299664e-02	0.0	2.007382e-02	3.283774e-02	0.0	2.054448e-02	3.267502e-02	0.0	2.101380e-02	3.250845e-02	0.0	2.148174e-02	3.233805e-02	0.0	2.194835e-02	3.216404e-02	0.0	2.241356e-02	3.198634e-02	0.0	2.287740e-02	3.180509e-02	0.0	2.333986e-02	3.162033e-02	0.0	2.380092e-02	3.143211e-02	0.0	2.426058e-02	3.124049e-02	0.0	2.471883e-02	3.104554e-02	0.0	2.517572e-02	3.084742e-02	0.0	2.563125e-02	3.064617e-02	0.0	2.608535e-02	3.044173e-02	0.0	2.653811e-02	3.023435e-02	0.0	2.698952e-02	3.002403e-02	0.0	2.743957e-02	2.981082e-02	0.0	2.788828e-02	2.959480e-02	0.0	2.833569e-02	2.937611e-02	0.0	2.878182e-02	2.915482e-02	0.0	2.922667e-02	2.893097e-02	0.0	2.967025e-02	2.870461e-02	0.0	3.011260e-02	2.847584e-02	0.0	3.055377e-02	2.824482e-02	0.0	3.099377e-02	2.801157e-02	0.0	3.143261e-02	2.777616e-02	0.0	3.187032e-02	2.753865e-02	0.0	3.230702e-02	2.729928e-02	0.0	3.274261e-02	2.705791e-02	0.0	3.317718e-02	2.681469e-02	0.0	3.361082e-02	2.656983e-02	0.0	3.404353e-02	2.632331e-02	0.0	3.447532e-02	2.607520e-02	0.0	3.490625e-02	2.582559e-02	0.0	3.533639e-02	2.557464e-02	0.0	3.576577e-02	2.532237e-02	0.0	3.619440e-02	2.506883e-02	0.0	3.662233e-02	2.481412e-02	0.0	3.704964e-02	2.455837e-02	0.0	3.747640e-02	2.430170e-02	0.0	3.790263e-02	2.404415e-02	0.0	3.832837e-02	2.378579e-02	0.0	3.875371e-02	2.352677e-02	0.0	3.917867e-02	2.326714e-02	0.0	3.960333e-02	2.300700e-02	0.0	4.002772e-02	2.274644e-02	0.0	4.045195e-02	2.248561e-02	0.0	4.087605e-02	2.222457e-02	0.0	4.130006e-02	2.196337e-02	0.0	4.172401e-02	2.170209e-02	0.0	4.214807e-02	2.144098e-02	0.0	4.257222e-02	2.118002e-02	0.0	4.299655e-02	2.091935e-02	0.0	4.342116e-02	2.065915e-02	0.0	4.384612e-02	2.039950e-02	0.0	4.427150e-02	2.014056e-02	0.0	4.469740e-02	1.988246e-02	0.0	4.512385e-02	1.962528e-02	0.0	4.555096e-02	1.936918e-02	0.0	4.597879e-02	1.911431e-02	0.0	4.640744e-02	1.886081e-02	0.0	4.683697e-02	1.860879e-02	0.0	4.726744e-02	1.835841e-02	0.0	4.769894e-02	1.810979e-02	0.0	4.813155e-02	1.786310e-02	0.0	4.856535e-02	1.761852e-02	0.0	4.900053e-02	1.737640e-02	0.0	4.943717e-02	1.713693e-02	0.0	4.987537e-02	1.690032e-02	0.0	5.031522e-02	1.666679e-02	0.0	5.075689e-02	1.643673e-02	0.0	5.120048e-02	1.621038e-02	0.0	5.164604e-02	1.598795e-02	0.0	5.209358e-02	1.576953e-02	0.0	5.254329e-02	1.555560e-02	0.0	5.299517e-02	1.534629e-02	0.0	5.344924e-02	1.514180e-02	0.0	5.390555e-02	1.494235e-02	0.0	5.436402e-02	1.474791e-02	0.0	5.482437e-02	1.455797e-02	0.0	5.528639e-02	1.437212e-02	0.0	5.574987e-02	1.418993e-02	0.0	5.621457e-02	1.401089e-02	0.0	5.668019e-02	1.383426e-02	0.0	5.714668e-02	1.365993e-02	0.0	5.761403e-02	1.348791e-02	0.0	5.808225e-02	1.331828e-02	0.0	5.855138e-02	1.315120e-02	0.0	5.902151e-02	1.298695e-02	0.0	5.949264e-02	1.282558e-02	0.0	5.996478e-02	1.266718e-02	0.0	6.043793e-02	1.251184e-02	0.0	6.091208e-02	1.235957e-02	0.0	6.138713e-02	1.221014e-02	0.0	6.186308e-02	1.206359e-02	0.0	6.233987e-02	1.191982e-02	0.0	6.281747e-02	1.177874e-02	0.0	6.329586e-02	1.164036e-02	0.0	6.377503e-02	1.150475e-02	0.0	6.425498e-02	1.137187e-02	0.0	6.473568e-02	1.124178e-02	0.0	6.521717e-02	1.111460e-02	0.0	6.569943e-02	1.099038e-02	0.0	6.618243e-02	1.086908e-02	0.0	6.666614e-02	1.075066e-02	0.0	6.715057e-02	1.063519e-02	0.0	6.763567e-02	1.052260e-02	0.0	6.812143e-02	1.041287e-02	0.0	6.860783e-02	1.030601e-02	0.0	6.909485e-02	1.020203e-02	0.0	6.958247e-02	1.010089e-02	0.0	7.007067e-02	1.000256e-02	0.0	7.055944e-02	9.907131e-03	0.0	7.104877e-02	9.814623e-03	0.0	7.153865e-02	9.725037e-03	0.0	7.202904e-02	9.638371e-03	0.0	7.251995e-02	9.554625e-03	0.0	7.301135e-02	9.473825e-03	0.0	7.350322e-02	9.395940e-03	0.0	7.399554e-02	9.320958e-03	0.0	7.448830e-02	9.248893e-03	0.0	7.498148e-02	9.179749e-03	0.0	7.547505e-02	9.113518e-03	0.0	7.596901e-02	9.050193e-03	0.0	7.646333e-02	8.989803e-03	0.0	7.695800e-02	8.932336e-03	0.0	7.745301e-02	8.877817e-03	0.0	7.794833e-02	8.826242e-03	0.0	7.844395e-02	8.777603e-03	0.0	7.893985e-02	8.731907e-03	0.0	7.943601e-02	8.689165e-03	0.0	7.993241e-02	8.649361e-03	0.0	8.042905e-02	8.612496e-03	0.0	8.092589e-02	8.578573e-03	0.0	8.142292e-02	8.547592e-03	0.0	8.192013e-02	8.519552e-03	0.0	8.241750e-02	8.494459e-03	0.0	8.291500e-02	8.472321e-03	0.0	8.341263e-02	8.453138e-03	0.0	8.391037e-02	8.436894e-03	0.0	8.440819e-02	8.423611e-03	0.0	8.490608e-02	8.413280e-03	0.0	8.540402e-02	8.405900e-03	0.0	8.590200e-02	8.401509e-03	0.0	8.689578e-02	8.401464e-03	0.0	8.739154e-02	8.405863e-03	0.0	8.788726e-02	8.413185e-03	0.0	8.838294e-02	8.423413e-03	0.0	8.887854e-02	8.436562e-03	0.0	8.937406e-02	8.452641e-03	0.0	8.986948e-02	8.471655e-03	0.0	9.036477e-02	8.493617e-03	0.0	9.085992e-02	8.518527e-03	0.0	9.135492e-02	8.546349e-03	0.0	9.184975e-02	8.577067e-03	0.0	9.234439e-02	8.610657e-03	0.0	9.283883e-02	8.647101e-03	0.0	9.333304e-02	8.686474e-03	0.0	9.382701e-02	8.728804e-03	0.0	9.432071e-02	8.774174e-03	0.0	9.481412e-02	8.822543e-03	0.0	9.530725e-02	8.873802e-03	0.0	9.580007e-02	8.927885e-03	0.0	9.629258e-02	8.984690e-03	0.0	9.678477e-02	9.044283e-03	0.0	9.727658e-02	9.106849e-03	0.0	9.776798e-02	9.172608e-03	0.0	9.825893e-02	9.241675e-03	0.0	9.874948e-02	9.313505e-03	0.0	9.923977e-02	9.387055e-03	0.0	9.972996e-02	9.461301e-03	0.0	1.002202e-01	9.535297e-03	0.0	1.007105e-01	9.608447e-03	0.0	1.012011e-01	9.680453e-03	0.0	1.016918e-01	9.751020e-03	0.0	1.021828e-01	9.819758e-03	0.0	1.026740e-01	9.886893e-03	0.0	1.031654e-01	9.952522e-03	0.0	1.036570e-01	1.001680e-02	0.0	1.041488e-01	1.007979e-02	0.0	1.046407e-01	1.014151e-02	0.0	1.051328e-01	1.020175e-02	0.0	1.056251e-01	1.026051e-02	0.0	1.061176e-01	1.031759e-02	0.0	1.066102e-01	1.037308e-02	0.0	1.071031e-01	1.042699e-02	0.0	1.075961e-01	1.047931e-02	0.0	1.080893e-01	1.053012e-02	0.0	1.085826e-01	1.057940e-02	0.0	1.090761e-01	1.062708e-02	0.0	1.095697e-01	1.067317e-02	0.0	1.100635e-01	1.071754e-02	0.0	1.105574e-01	1.076030e-02	0.0	1.110515e-01	1.080145e-02	0.0	1.115457e-01	1.084099e-02	0.0	1.120400e-01	1.087885e-02	0.0	1.125345e-01	1.091512e-02	0.0	1.130291e-01	1.094960e-02	0.0	1.135237e-01	1.098256e-02	0.0	1.140185e-01	1.101371e-02	0.0	1.145134e-01	1.104329e-02	0.0	1.150084e-01	1.107103e-02	0.0	1.155035e-01	1.109723e-02	0.0	1.159987e-01	1.112173e-02	0.0	1.164940e-01	1.114450e-02	0.0	1.169893e-01	1.116566e-02	0.0	1.174847e-01	1.118507e-02	0.0	1.179802e-01	1.120279e-02	0.0	1.184757e-01	1.121881e-02	0.0	1.189712e-01	1.123320e-02	0.0	1.194669e-01	1.124584e-02	0.0	1.199625e-01	1.125677e-02	0.0	1.204582e-01	1.126603e-02	0.0	1.209539e-01	1.127367e-02	0.0	1.214497e-01	1.127959e-02	0.0	1.219454e-01	1.128372e-02	0.0	1.224412e-01	1.128622e-02	0.0	4.994220e-04	0.000000e+00	0.0	9.988439e-04	0.000000e+00	0.0	1.498266e-03	0.000000e+00	0.0	1.997688e-03	0.000000e+00	0.0	2.497110e-03	0.000000e+00	0.0	2.996532e-03	0.000000e+00	0.0	3.495954e-03	0.000000e+00	0.0	3.995376e-03	0.000000e+00	0.0	4.494798e-03	0.000000e+00	0.0	4.994220e-03	0.000000e+00	0.0	5.493642e-03	0.000000e+00	0.0	5.993064e-03	0.000000e+00	0.0	6.492486e-03	0.000000e+00	0.0	6.991908e-03	0.000000e+00	0.0	7.491329e-03	0.000000e+00	0.0	7.990751e-03	0.000000e+00	0.0	8.490173e-03	0.000000e+00	0.0	8.989595e-03	0.000000e+00	0.0	9.489017e-03	0.000000e+00	0.0	9.988439e-03	0.000000e+00	0.0	1.048786e-02	0.000000e+00	0.0	1.098728e-02	0.000000e+00	0.0	1.148671e-02	0.000000e+00	0.0	1.198613e-02	0.000000e+00	0.0	1.248555e-02	0.000000e+00	0.0	1.298497e-02	0.000000e+00	0.0	1.348439e-02	0.000000e+00	0.0	1.398382e-02	0.000000e+00	0.0	1.448324e-02	0.000000e+00	0.0	1.498266e-02	0.000000e+00	0.0	1.548208e-02	0.000000e+00	0.0	1.598150e-02	0.000000e+00	0.0	1.648092e-02	0.000000e+00	0.0	1.698035e-02	0.000000e+00	0.0	1.747977e-02	0.000000e+00	0.0	1.797919e-02	0.000000e+00	0.0	1.847861e-02	0.000000e+00	0.0	1.897803e-02	0.000000e+00	0.0	1.947746e-02	0.000000e+00	0.0	1.997688e-02	0.000000e+00	0.0	2.047630e-02	0.000000e+00	0.0	2.097572e-02	0.000000e+00	0.0	2.147514e-02	0.000000e+00	0.0	2.197457e-02	0.000000e+00	0.0	2.247399e-02	0.000000e+00	0.0	2.297341e-02	0.000000e+00	0.0	2.347283e-02	0.000000e+00	0.0	2.397225e-02	0.000000e+00	0.0	2.447168e-02	0.000000e+00	0.0	2.497110e-02	0.000000e+00	0.0	2.547052e-02	0.000000e+00	0.0	2.596994e-02	0.000000e+00	0.0	2.646936e-02	0.000000e+00	0.0	2.696879e-02	0.000000e+00	0.0	2.746821e-02	0.000000e+00	0.0	2.796763e-02	0.000000e+00	0.0	2.846705e-02	0.000000e+00	0.0	2.896647e-02	0.000000e+00	0.0	2.946590e-02	0.000000e+00	0.0	2.996532e-02	0.000000e+00	0.0	3.046474e-02	0.000000e+00	0.0	3.096416e-02	0.000000e+00	0.0	3.146358e-02	0.000000e+00	0.0	3.196301e-02	0.000000e+00	0.0	3.246243e-02	0.000000e+00	0.0	3.296185e-02	0.000000e+00	0.0	3.346127e-02	0.000000e+00	0.0	3.396069e-0
[...]
POINT_DATA 11393

SCALARS Conservative_1 float 1
LOOKUP_TABLE default
7.297943e+01	3.851041e+01	1.739504e+01	7.159310e+01	4.041525e+01	1.720374e+01	7.082639e+01	7.231235e+01	7.226750e+01	7.201740e+01	7.211331e+01	7.217566e+01	7.202851e+01	7.210534e+01	7.212967e+01	7.211988e+01	7.213614e+01	7.212615e+01	7.212561e+01	7.212077e+01	7.212713e+01	7.211395e+01	7.211614e+01	7.211685e+01	7.210306e+01	7.213268e+01	7.211008e+01	7.211348e+01	7.212017e+01	7.210986e+01	7.211676e+01	7.208435e+01	7.210859e+01	7.208746e+01	7.210212e+01	7.208175e+01	7.207419e+01	7.208588e+01	7.205927e+01	7.206717e+01	7.204971e+01	7.204566e+01	7.204925e+01	7.202152e+01	7.202048e+01	7.200723e+01	7.200327e+01	7.199449e+01	7.199050e+01	7.197117e+01	7.194971e+01	7.194267e+01	7.193034e+01	7.191187e+01	7.190476e+01	7.188841e+01	7.187445e+01	7.185418e+01	7.183817e+01	7.182205e+01	7.179898e+01	7.178202e+01	7.176585e+01	7.174245e+01	7.172091e+01	7.169805e+01	7.166985e+01	7.165040e+01	7.162657e+01	7.159975e+01	7.156472e+01	7.154239e+01	7.151317e+01	7.148148e+01	7.144937e+01	7.141159e+01	7.137986e+01	7.134587e+01	7.130897e+01	7.126026e+01	7.122132e+01	7.118275e+01	7.114222e+01	7.108877e+01	7.103647e+01	7.099088e+01	7.093829e+01	7.088144e+01	7.082632e+01	7.077068e+01	7.070666e+01	7.063511e+01	7.057056e+01	7.050254e+01	7.043117e+01	7.035551e+01	7.027265e+01	7.018644e+01	7.010145e+01	7.001272e+01	6.990979e+01	6.980889e+01	6.971193e+01	6.960055e+01	6.948852e+01	6.937067e+01	6.924989e+01	6.911965e+01	6.899005e+01	6.884461e+01	6.869695e+01	6.853761e+01	6.838344e+01	6.821530e+01	6.804212e+01	6.785991e+01	6.766953e+01	6.748586e+01	6.730123e+01	6.710386e+01	6.690434e+01	6.671912e+01	6.653333e+01	6.635434e+01	6.619231e+01	6.604052e+01	6.588161e+01	6.573016e+01	6.557824e+01	6.540938e+01	6.520963e+01	6.499757e+01	6.477432e+01	6.453864e+01	6.429631e+01	6.404643e+01	6.379280e+01	6.353928e+01	6.328933e+01	6.302237e+01	6.275225e+01	6.247456e+01	6.218695e+01	6.188729e+01	6.157619e+01	6.125676e+01	6.092515e+01	6.058381e+01	6.023789e+01	5.988723e+01	5.952791e+01	5.916158e+01	5.878664e+01	5.840133e+01	5.800798e+01	5.760398e+01	5.719016e+01	5.676423e+01	5.632735e+01	5.588465e+01	5.543398e+01	5.497470e+01	5.450087e+01	5.402455e+01	5.353989e+01	5.304423e+01	5.254028e+01	5.202897e+01	5.150899e+01	5.097992e+01	5.043824e+01	4.989535e+01	4.933880e+01	4.878013e+01	4.821391e+01	4.764220e+01	4.706373e+01	4.648032e+01	4.588332e+01	4.529286e+01	4.469293e+01	4.408496e+01	4.347340e+01	4.286295e+01	4.224025e+01	4.161984e+01	4.099503e+01	4.037581e+01	3.975103e+01	3.912754e+01	3.787215e+01	3.725441e+01	3.662961e+01	3.601110e+01	3.539080e+01	3.476797e+01	3.414414e+01	3.353140e+01	3.291791e+01	3.231236e+01	3.172003e+01	3.112822e+01	3.053009e+01	2.993646e+01	2.934212e+01	2.875021e+01	2.817474e+01	2.761517e+01	2.706971e+01	2.653467e+01	2.599052e+01	2.542732e+01	2.485987e+01	2.431369e+01	2.385433e+01	2.350682e+01	2.325881e+01	2.308142e+01	2.293842e+01	2.281237e+01	2.271237e+01	2.262191e+01	2.251332e+01	2.238652e+01	2.223801e+01	2.209918e+01	2.196453e+01	2.183443e+01	2.171230e+01	2.159209e+01	2.146454e+01	2.133522e+01	2.120174e+01	2.106177e+01	2.092586e+01	2.079048e+01	2.065885e+01	2.052788e+01	2.039075e+01	2.025360e+01	2.012069e+01	1.998859e+01	1.986106e+01	1.973270e+01	1.960578e+01	1.948001e+01	1.935633e+01	1.923225e+01	1.909892e+01	1.897089e+01	1.884121e+01	1.870871e+01	1.857790e+01	1.844558e+01	1.831158e+01	1.818028e+01	1.805721e+01	1.793666e+01	1.781360e+01	1.770690e+01	1.761874e+01	1.754268e+01	1.748466e+01	7.159433e+01	7.159513e+01	7.159560e+01	7.159564e+01	7.159526e+01	7.159446e+01	7.159320e+01	7.159160e+01	7.158966e+01	7.158728e+01	7.158435e+01	7.158123e+01	7.157740e+01	7.157327e+01	7.156874e+01	7.156378e+01	7.155849e+01	7.155261e+01	7.154636e+01	7.153964e+01	7.153245e+01	7.152502e+01	7.151690e+01	7.150841e+01	7.149957e+01	7.149036e+01	7.148073e+01	7.147039e+01	7.145985e+01	7.144874e+01	7.143712e+01	7.142532e+01	7.141266e+01	7.139963e+01	7.138624e+01	7.137217e+01	7.135770e+01	7.134274e+01	7.132715e+01	7.131114e+01	7.129426e+01	7.127695e+01	7.125894e+01	7.124045e+01	7.122118e+01	7.120120e+01	7.118052e+01	7.115896e+01	7.113679e+01	7.111375e+01	7.108981e+01	7.106513e+01	7.103942e+01	7.101279e+01	7.098523e+01	7.095662e+01	7.092703e+01	7.089631e+01	7.086444e+01	7.083140e+01	7.079715e+01	7.076171e+01	7.072479e+01	7.068659e+01	7.064687e+01	7.060592e+01	7.056337e+01	7.051895e+01	7.047317e+01	7.042558e+01	7.037616e+01	7.032517e+01	7.027226e+01	7.021692e+01	7.015985e+01	7.010038e+01	7.003888e+01	6.997521e+01	6.990890e+01	6.984029e+01	6.976932e+01	6.969563e+01	6.961921e+01	6.953995e+01	6.945795e+01	6.937327e+01	6.928534e+01	6.919400e+01	6.910029e+01	6.900270e+01	6.890196e+01	6.879756e+01	6.868995e+01	6.857828e+01	6.846316e+01	6.834387e+01	6.822076e+01	6.809366e+01	6.796205e+01	6.782654e+01	6.768636e+01	6.754179e+01	6.739263e+01	6.723855e+01	6.707989e+01	6.691615e+01	6.674752e+01	6.657338e+01	6.639446e+01	6.621024e+01	6.601982e+01	6.582417e+01	6.562276e+01	6.541527e+01	6.520214e+01	6.498258e+01	6.475664e+01	6.452448e+01	6.428549e+01	6.404005e+01	6.378777e+01	6.352865e+01	6.326209e+01	6.298854e+01	6.270801e+01	6.241968e+01	6.212383e+01	6.182051e+01	6.150913e+01	6.119026e+01	6.086311e+01	6.052827e+01	6.018504e+01	5.983382e+01	5.947453e+01	5.910680e+01	5.873039e+01	5.834589e+01	5.795304e+01	5.755183e+01	5.714226e+01	5.672436e+01	5.629815e+01	5.586368e+01	5.542104e+01	5.497056e+01	5.451192e+01	5.404523e+01	5.357055e+01	5.308876e+01	5.259753e+01	5.210174e+01	5.159595e+01	5.108507e+01	5.056701e+01	5.004272e+01	4.951120e+01	4.897339e+01	4.843110e+01	4.788286e+01	4.732942e+01	4.677108e+01	4.620840e+01	4.564233e+01	4.507225e+01	4.449774e+01	4.392084e+01	4.334007e+01	4.275690e+01	4.217367e+01	4.158712e+01	4.100478e+01	3.983868e+01	3.926013e+01	3.868103e+01	3.810104e+01	3.752090e+01	3.694000e+01	3.636588e+01	3.579608e+01	3.522637e+01	3.465967e+01	3.409580e+01	3.353522e+01	3.297860e+01	3.242410e+01	3.187994e+01	3.133618e+01	3.079438e+01	3.025862e+01	2.972892e+01	2.921071e+01	2.869365e+01	2.818707e+01	2.768872e+01	2.719596e+01	2.670706e+01	2.622630e+01	2.574845e+01	2.527391e+01	2.480398e+01	2.434076e+01	2.388602e+01	2.344117e+01	2.300734e+01	2.258275e+01	2.217133e+01	2.176669e+01	2.136640e+01	2.096832e+01	2.057044e+01	2.017389e+01	1.978078e+01	1.939358e+01	1.901695e+01	1.865924e+01	1.832298e+01	1.801869e+01	1.774750e+01	1.754035e+01	1.734584e+01	1.721132e+01	1.712799e+01	1.708838e+01	1.708244e+01	1.709913e+01	1.712641e+01	1.715345e+01	1.717236e+01	1.718049e+01	1.718401e+01	1.718197e+01	1.717800e+01	1.717752e+01	1.717936e+01	1.718564e+01	1.719161e+01	1.719699e+01	1.720116e+01	1.720342e+01	1.720415e+01	1.720437e+01	1.720424e+01	1.720394e+01	1.720372e+01	7.159300e+01	7.159355e+01	7.159422e+01	7.159534e+01	7.159671e+01	7.159801e+01	7.160011e+01	7.160213e+01	7.160427e+01	7.160718e+01	7.160992e+01	7.161351e+01	7.161664e+01	7.162053e+01	7.162462e+01	7.162875e+01	7.163340e+01	7.163800e+01	7.164327e+01	7.164834e+01	7.165390e+01	7.165971e+01	7.166576e+01	7.167175e+01	7.167833e+01	7.168493e+01	7.169174e+01	7.169885e+01	7.170593e+01	7.171344e+01	7.172099e+01	7.172868e+01	7.173659e+01	7.174459e+01	7.175292e+01	7.176115e+01	7.176959e+01	7.177814e+01	7.178680e+01	7.179550e+01	7.180435e+01	7.181328e+01	7.182225e+01	7.183117e+01	7.184025e+01	7.184928e+01	7.185835e+01	7.186739e+01	7.187637e+01	7.188539e+01	7.189424e+01	7.190315e+01	7.191176e+01	7.192041e+01	7.192896e+01	7.193662e+01	7.194519e+01	7.195265e+01	7.195971e+01	7.196629e+01	7.197212e+01	7.197528e+01	7.198595e+01	7.198664e+01	7.196732e+01	7.197014e+01	7.196009e+01	7.203900e+01	7.219303e+01	7.224622e+01	6.980364e+01	1.720445e+01	1.720577e+01	1.720760e+01	1.720989e+01	1.721224e+01	1.721413e+01	1.721473e+01	1.721439e+01	1.721323e+01	1.721247e+01	1.721221e+01	1.721135e+01	1.720790e+01	1.720142e+01	1.719048e+01	1.717566e+01	1.716040e+01	1.715163e+01	1.715789e+01	1.718825e+01	1.724493e+01	1.732248e+01	7.180839e+01	7.179903e+01	7.179963e+01	6.952268e+01	6.957620e+01	6.958565e+01	7.203007e+01	7.203283e+01	7.200751e+01	7.204773e+01	6.504041e+01	6.515917e+01	6.494754e+01	6.508147e+01	7.159736e+01	7.159774e+01	7.159920e+01	7.143978e+01	7.144760e+01	7.145167e+01	7.143908e+01	7.145975e+01	7.146278e+01	7.145382e+01	7.159618e+01	7.197103e+01	7.197002e+01	7.195025e+01	6.925920e+01	6.936869e+01	6.930239e+01	6.929717e+01	6.314521e+01	6.306321e+01	6.331079e+01	6.335927e+01	7.133427e+01	7.133559e+01	7.135628e+01	6.959241e+01	6.961184e+01	6.956048e+01	7.131069e+01	7.159946e+01	7.160091e+01	7.160157e+01	6.955915e+01	6.960772e+01	7.146271e+01	7.147253e+01	7.148184e+01	7.144827e+01	7.151883e+01	7.151267e+01	7.152332e+01	7.058225e+01	7.064059e+01	7.062073e+01	1.895868e+01	1.895641e+01	1.913044e+01	1.911262e+01	6.971260e+01	6.977264e+01	6.972050e+01	6.979027e+01	7.192881e+01	7.191673e+01	7.191626e+01	7.192621e+01	7.070779e+01	7.076369e+01	7.074357e+01	7.199952e+01	7.199479e+01	7.200440e+01	7.089353e+01	7.085752e+01	7.088053e+01	7.086333e+01	7.076785e+01	7.164245e+01	7.163861e+01	7.091384e+01	7.087763e+01	7.091493e+01	7.088124e+01	7.200218e+01	7.159800e+01	7.159683e+01	7.159804e+01	4.332658e+01	4.381000e+01	4.334684e+01	4.386135e+01	6.971839e+01	6.977085e+01	6.977181e+01	7.163561e+01	6.966058e+01	6.964475e+01	6.969861e+01	7.056775e+01	7.053687e+01	7.150325e+01	4.115661e+01	4.097395e+01	4.136826e+01	4.105829e+01	3.140387e+01	3.102544e+01	3.147807e+01	3.087082e+01	7.119218e+01	7.121688e+01	7.119146e+01	7.069048e+01	7.068051e+01	7.063979e+01	7.058806e+01	7.056585e+01	7.054879e+01	7.061208e+01	7.153242e+01	7.153355e+01	7.152560e+01	7.153953e+01	7.083076e+01	7.087413e+01	7.085198e+01	3.944340e+01	3.921538e+01	3.977306e+01	3.924625e+01	7.119180e+01	7.118386e+01	7.121179e+01	7.119362e+01	7.133248e+01	7.134520e+01	7.133267e+01	7.189328e+01	7.188719e+01	7.188184e+01	7.134418e+01	7.116710e+01	7.116011e+01	5.850358e+01	5.860690e+01	5.826906e+01	5.856941e+01	7.161074e+01	7.161352e+01	7.161223e+01	7.161051e+01	7.145435e+01	7.146481e+01	7.148454e+01	7.149303e+01	7.148273e+01	7.118916e+01	7.118324e+01	7.116921e+01	7.174264e+01	7.172806e+01	7.174150e+01	7.114591e+01	7.117317e+01	7.115210e+01	7.144088e+01	7.143779e+01	7.145068e+01	7.172660e+01	7.132204e+01	7.132482e+01	7.133959e+01	7.130719e+01	7.120365e+01	7.117226e+01	7.120400e+01	7.149659e+01	7.116811e+01	6.836938e+01	6.826851e+01	6.833117e+01	7.132147e+01	7.133790e+01	7.134190e+01	7.132172e+01	5.319748e+01	5.312761e+01	5.354858e+01	5.351925e+01	7.123118e+01	7.125006e+01	7.123899e+01	7.164191e+01	7.163776e+01	1.839002e+01	1.862140e+01	1.830955e+01	7.159185e+01	7.159053e+01	7.158979e+01	1.856059e+01	1.961661e+01	1.942473e+01	1.956819e+01	7.124258e+01	7.126381e+01	7.128122e+01	7.129156e+01	7.148435e+01	7.149758e+01	7.148822e+01	7.129292e+01	7.128125e+01	1.937540e+01	7.195443e+01	7.195470e+01	7.196206e+01	7.195910e+01	6.459043e+01	6.474026e+01	6.448412e+01	6.476178e+01	7.160377e+01	7.160176e+01	7.160376e+01	7.163614e+01	7.165004e+01	7.165290e+01	7.122354e+01	7.122987e+01	7.124171e+01	7.150356e+01	7.202279e+01	7.204970e+01	7.203045e+01	7.192598e+01	7.193258e+01	7.193826e+01	7.159479e+01	7.159233e+01	7.159337e+01	7.198921e+01	7.197788e+01	7.197881e+01	7.158433e+01	7.158153e+01	7.158161e+01	7.198855e+01	6.046618e+01	6.035896e+01	6.066198e+01	7.163609e+01	7.154822e+01	7.154816e+01	7.153661e+01	5.307119e+01	5.276536e+01	1.746289e+01	1.757004e+01	1.746333e+01	1.758855e+01	1.737852e+01	1.746572e+01	1.735657e+01	7.107963e+01	7.107533e+01	7.105968e+01	7.184226e+01	7.184659e+01	7.183754e+01	1.810612e+01	1.833237e+01	1.813605e+01	6.777287e+01	6.779500e+01	6.792001e+01	1.720595e+01	1.720273e+01	1.720473e+01	1.720166e+01	7.184043e+01	7.156066e+01	1.720891e+01	1.720866e+01	1.720868e+01	6.765605e+01	6.965274e+01	6.959243e+01	6.965353e+01	6.961385e+01	6.953666e+01	6.949805e+01	6.957245e+01	6.678519e+01	6.664975e+01	6.665333e+01	6.649948e+01	6.954155e+01	7.176021e+01	7.176278e+01	7.175565e+01	7.157725e+01	7.157824e+01	7.159536e+01	7.176857e+01	7.171872e+01	7.171904e+01	7.172495e+01	7.174183e+01	7.175510e+01	7.158193e+01	7.157840e+01	7.157733e+01	7.183540e+01	7.184282e+01	7.184712e+01	7.171252e+01	1.785106e+01	1.770731e+01	1.771286e+01	1.780856e+01	1.770581e+01	1.758140e+01	6.698815e+01	6.683278e+01	6.690377e+01	6.694739e+01	1.718478e+01	1.719200e+01	1.718189e+01	7.204301e+01	7.201248e+01	7.201720e+01	1.716692e+01	1.717646e+01	1.718863e+01	1.716279e+01	1.718058e+01	6.963976e+01	6.962751e+01	6.185918e+01	6.961381e+01	1.719428e+01	1.719474e+01	1.719597e+01	1.719389e+01	6.964769e+01	6.960943e+01	7.160021e+01	7.159900e+01	6.961504e+01	6.610564e+01	6.609048e+01	6.623151e+01	7.025419e+01	7.029100e+01	7.024024e+01	2.849262e+01	2.870651e+01	2.886469e+01	7.139431e+01	7.141862e+01	7.138178e+01	7.142351e+01	5.255670e+01	5.278771e+01	5.288390e+01	5.318047e+01	4.255684e+01	4.201711e+01	4.238543e+01	4.222031e+01	7.102881e+01	7.101848e+01	7.104799e+01	7.103702e+01	3.859637e+01	3.897866e+01	3.840743e+01	3.888912e+01	6.341970e+01	7.159963e+01	7.159744e+01	7.159961e+01	6.777281e+01	6.777557e+01	6.766294e+01	4.382937e+01	4.382507e+01	4.435589e+01	7.026198e+01	7.097952e+01	7.100344e+01	7.095832e+01	7.169187e+01	7.168544e+01	7.167626e+01	6.823071e+01	6.837562e+01	6.839810e+01	4.282512e+01	4.262872e+01	3.445070e+01	3.491987e+01	3.487080e+01	3.459994e+01	7.090610e+01	7.093586e+01	7.089400e+01	7.094232e+01	3.173270e+01	3.216285e+01	3.190834e+01	3.181407e+01	3.678992e+01	3.720188e+01	3.656078e+01	3.687708e+01	1.721202e+01	1.721082e+01	3.149647e+01	3.183769e+01	7.160116e+01	7.160915e+01	7.161312e+01	7.180756e+01	7.181399e+01	7.181044e+01	7.184092e+01	7.183619e+01	7.183156e+01	3.192787e+01	3.206980e+01	3.236276e+01	7.159790e+01	7.159642e+01	2.541022e+01	2.580381e+01	2.533899e+01	2.559971e+01	3.099977e+01	3.132563e+01	3.100862e+01	3.125229e+01	7.204267e+01	7.204316e+01	7.205360e+01	7.205376e+01	7.181843e+01	7.158933e+01	7.158712e+01	7.158736e+01	7.180039e+01	7.180422e+01	7.179702e+01	3.282488e+01	3.241807e+01	3.257975e+01	2.501988e+01	2.515350e+01	7.091484e+01	7.087897e+01	7.089354e+01	7.162297e+01	6.966954e+01	2.487109e+01	2.517071e+01	2.942828e+01	2.992452e+01	2.970022e+01	2.973311e+01	6.969436e+01	6.578768e+01	6.568795e+01	6.588724e+01	6.750658e+01	6.764200e+01	6.753515e+01	6.758988e+01	2.455047e+01	2.467798e+01	1.719750e+01	1.719840e+01	1.719705e+01	6.878824e+01	6.875144e+01	6.868035e+01	6.866168e+01	2.440751e+01	2.470656e+01	7.150517e+01	7.148948e+01	7.031525e+01	7.035148e+01	7.032264e+01	3.064243e+01	3.073493e+01	5.587900e+01	5.548916e+01	5.567139e+01	5.572825e+01	7.159610e+01	7.159811e+01	7.159323e+01	4.930603e+01	4.923216e+01	4.892190e+01	2.408158e+01	2.420013e+01	2.394747e+01	2.424771e+01	7.160016e+01	7.037475e+01	7.041448e+01	5.603307e+01	5.575323e+01	5.631296e+01	5.616522e+01	1.975527e+01	1.967054e+01	1.959496e+01	1.986413e+01	7.154310e+01	7.153815e+01	7.154365e+01	7.153803e+01	7.139152e+01	7.137161e+01	7.137732e+01	7.160168e+01	7.038784e+01	1.720763e+01	1.720630e+01	7.024337e+01	7.018977e+01	7.023168e+01	7.158443e+01	7.158914e+01	7.158489e+01	7.158884e+01	1.719371e+01	1.719089e+01	1.719214e+01	1.718981e+01	2.361654e+01	2.372170e+01	2.349937e+01	2.379024e+01	5.646408e+01	5.619098e+01	6.725160e+01	6.737191e+01	6.725784e+01	3.066848e+01	3.029659e+01	7.022498e+01	7.160781e+01	7.160826e+01	7.160468e+01	2.809418e+01	2.851565e+01	2.819820e+01	3.956343e+01	3.912126e+01	3.931018e+01	3.947852e+01	7.131981e+01	7.131394e+01	7.132808e+01	6.517851e+01	6.519371e+01	6.537708e+01	1.940208e+01	1.955753e+01	2.316895e+01	2.324865e+01	1.912258e+01	1.894503e+01	1.916823e+01	6.592012e+01	6.587167e+01	6.570589e+01	5.673759e+01	5.659382e+01	2.311613e+01	2.333036e+01	3.010975e+01	3.057737e+01	3.034463e+01	3.033756e+01	7.143251e+01	7.141967e+01	7.144311e+01	6.867252e+01	6.881265e+01	6.880549e+01	5.688432e+01	5.662022e+01	1.888712e+01	1.885873e+01	1.871631e+01	1.905581e+01	7.157706e+01	7.156843e+01	7.157502e+01	2.278738e+01	2.279310e+01	6.077676e+01	6.080758e+01	6.053118e+01	6.107705e+01	6.558643e+01	6.540699e+01	6.555392e+01	6.540167e+01	5.715005e+01	5.701398e+01	7.111545e+01	7.112510e+01	7.110326e+01	7.160360e+01	4.803728e+01	4.758319e+01	4.770589e+01	4.797018e+01	5.728543e+01	5.704131e+01	4.024821e+01	4.007309e+01	4.054918e+01	4.017736e+01	7.156923e+01	6.973646e+01	6.967032e+01	7.113094e+01	7.111667e+01	7.110766e+01	5.754321e+01	5.742557e+01	5.762391e+01	5.745626e+01	2.180721e+01	2.210197e+01	2.198808e+01	2.201056e+01	2.170548e+01	2.199422e+01	4.054541e+01	3.996738e+01	4.032417e+01	4.022219e+01	1.765031e+01	1.771191e+01	1.757803e+01	1.784990e+01	1.748779e+01	1.742430e+01	7.169226e+01	7.169616e+01	7.168940e+01	7.203891e+01	7.201861e+01	7.202122e+01	3.008293e+01	2.977185e+01	3.022143e+01	2.150278e+01	2.160802e+01	1.754155e+01	1.773068e+01	5.789255e+01	7.163690e+01	7.163357e+01	7.163737e+01	5.782693e+01	2.142227e+01	2.157711e+01	7.163539e+01	3.832148e+01	3.786142e+01	3.811144e+01	3.821354e+01	7.046559e+01	7.049238e+01	7.051619e+01	3.979889e+01	4.003563e+01	3.957367e+01	7.169059e+01	6.030298e+01	5.996227e+01	6.014110e+01	7.123286e+01	7.121232e+01	7.122280e+01	6.045531e+01	6.074731e+01	6.064420e+01	6.049592e+01	7.154738e+01	7.154076e+01	7.154527e+01	6.031472e+01	2.122413e+01	3.003232e+01	3.062614e+01	2.130623e+01	1.739068e+01	1.732893e+01	7.158428e+01	7.158658e+01	7.158727e+01	4.376691e+01	4.417788e+01	4.407266e+01	4.454577e+01	4.345544e+01	4.349143e+01	4.305902e+01	7.159285e+01	7.159099e+01	1.716886e+01	7.159547e+01	1.745484e+01	1.760244e+01	7.157915e+01	7.157934e+01	7.159569e+01	7.158193e+01	7.206119e+01	7.206474e+01	7.207943e+01	3.120505e+01	7.202025e+01	7.208822e+01	7.205431e+01	1.720659e+01	1.720559e+01	7.154445e+01	7.203628e+01	7.208172e+01	4.862076e+01	4.895529e+01	4.844662e+01	1.756183e+01	1.747663e+01	2.920944e+01	2.874379e+01	2.925309e+01	3.937362e+01	3.963809e+01	3.926970e+01	3.954923e+01	6.685451e+01	6.664431e+01	6.678421e+01	1.720480e+01	6.674778e+01	7.052632e+01	7.047236e+01	7.153018e+01	7.153328e+01	7.153699e+01	7.197045e+01	7.195651e+01	7.196949e+01	7.195750e+01	7.159595e+01	2.971596e+01	2.955031e+01	3.175833e+01	7.036489e+01	7.030834e+01	7.033860e+01	1.717774e+01	1.716871e+01	1.716354e+01	5.443096e+01	5.416208e+01	5.403055e+01	7.033873e+01	6.981356e+01	3.737544e+01	3.755109e+01	1.732884e+01	7.115057e+01	7.112444e+01	7.116722e+01	1.725944e+01	2.547568e+01	2.500424e+01	2.510861e+01	2.456205e+01	3.229096e+01	3.864505e+01	3.815361e+01	7.198729e+01	7.199453e+01	7.198669e+01	7.130268e+01	7.131607e+01	7.131883e+01	7.196976e+01	7.203362e+01	7.202247e+01	7.199750e+01	2.985537e+01	7.204769e+01	7.213241e+01	7.130359e+01	1.732752e+01	1.726134e+01	1.735370e+01	7.192182e+01	7.187455e+01	7.192854e+01	3.283435e+01	7.096487e+01	7.097968e+01	7.099362e+01	7.095644e+01	7.191043e+01	7.191418e+01	7.192344e+01	7.158917e+01	7.159136e+01	1.715339e+01	7.159131e+01	7.155343e+01	7.152929e+01	7.154242e+01	7.152197e+01	5.477994e+01	5.466014e+01	5.505373e+01	7.107319e+01	7.106424e+01	6.634817e+01	6.653770e+01	7.159562e+01	7.163681e+01	7.164219e+01	7.164162e+01	7.159604e+01	7.159609e+01	7.159581e+01	7.163597e+01	7.162848e+01	7.163222e+01	7.163077e+01	2.692093e+01	2.691262e+01	2.720591e+01	1.720840e+01	7.190122e+01	1.720607e+01	1.720552e+01	3.743277e+01	3.757814e+01	3.787756e+01	7.105680e+01	7.200857e+01	6.839758e+01	6.843284e+01	6.833034e+01	3.030709e+01	1.759272e+01	3.013631e+01	5.519654e+01	5.543818e+01	6.836798e+01	5.514424e+01	1.720485e+01	7.153823e+01	7.159673e+01	7.159559e+01	7.159591e+01	7.154219e+01	1.720513e+01	6.454073e+01	6.430915e+01	6.443351e+01	7.166033e+01	7.165577e+01	7.165754e+01	7.196928e+01	7.197566e+01	7.198772e+01	2.652529e+01	2.654241e+01	2.606269e+01	6.438480e+01	2.617577e+01	7.200965e+01	7.201795e+01	7.200969e+01	1.720486e+01	1.720409e+01	1.720467e+01	1.720473e+01	7.139110e+01	7.137939e+01	7.138524e+01	7.159629e+01	7.159658e+01	7.159700e+01	7.137394e+01	7.202157e+01	7.208833e+01	6.693456e+01	6.706635e+01	6.693638e+01	4.811425e+01	4.795922e+01	3.310970e+01	3.339255e+01	1.768777e+01	1.755179e+01	1.742861e+01	1.780137e+01	7.198589e+01	7.200154e+01	7.197870e+01	7.041808e+01	7.039478e+01	7.182623e+01	7.183164e+01	7.182350e+01	7