TITLE = "Visualization of the solution"
VARIABLES = "x","y","Density","Momentum_x","Momentum_y","Energy","Pressure","Temperature","Pressure_Coefficient","Mach"
ZONE NODES= 5450, ELEMENTS= 10619, DATAPACKING=POINT, ZONETYPE=FEQUADRILATERAL
9.878920e-01	6.490763e-02	1.388208e+02	7.403234e+03	-1.587574e+03	4.159683e+07	7.391911e+05	6.475563e+02	-3.589223e-01	1.282647e+00	
4.376141e-03	9.956289e-01	2.095000e+02	9.729012e+03	-9.038644e-10	6.307897e+07	8.202730e+05	6.526404e+02	-1.879414e-12	1.700000e+00	
4.156156e-01	6.174681e-01	2.088425e+02	9.712224e+03	-1.193531e+01	6.287906e+07	8.197813e+05	6.525995e+02	-2.176525e-03	1.698776e+00	
4.270021e-01	6.157426e-01	2.086679e+02	9.707692e+03	-1.518570e+01	6.282598e+07	8.196504e+05	6.525886e+02	-2.756007e-03	1.698424e+00	
3.860194e-01	6.327546e-01	2.091946e+02	9.721267e+03	-5.411249e+00	6.298613e+07	8.200449e+05	6.526214e+02	-1.009653e-03	1.699451e+00	
3.976394e-01	6.337586e-01	2.091241e+02	9.719405e+03	-6.747096e+00	6.296470e+07	8.199922e+05	6.526171e+02	-1.243054e-03	1.699309e+00	
3.932031e-01	6.227273e-01	2.090738e+02	9.718236e+03	-7.596085e+00	6.294939e+07	8.199545e+05	6.526139e+02	-1.409837e-03	1.699235e+00	
4.082339e-01	6.276673e-01	2.089979e+02	9.716163e+03	-9.088079e+00	6.292633e+07	8.198977e+05	6.526092e+02	-1.661111e-03	1.699068e+00	
4.023625e-01	6.110192e-01	2.089068e+02	9.714045e+03	-1.060694e+01	6.289862e+07	8.198295e+05	6.526035e+02	-1.963270e-03	1.698931e+00	
4.228728e-01	6.274295e-01	2.088644e+02	9.712645e+03	-1.159865e+01	6.288571e+07	8.197977e+05	6.526009e+02	-2.103952e-03	1.698794e+00	
4.172231e-01	6.060933e-01	2.086736e+02	9.708062e+03	-1.491740e+01	6.282774e+07	8.196547e+05	6.525890e+02	-2.736953e-03	1.698474e+00	
4.354386e-01	6.262009e-01	2.086938e+02	9.708160e+03	-1.481864e+01	6.283386e+07	8.196699e+05	6.525903e+02	-2.669840e-03	1.698441e+00	
4.396721e-01	6.142600e-01	2.084412e+02	9.701789e+03	-1.943893e+01	6.275705e+07	8.194802e+05	6.525745e+02	-3.509453e-03	1.697954e+00	
4.475332e-01	6.251206e-01	2.084916e+02	9.702802e+03	-1.868626e+01	6.277236e+07	8.195181e+05	6.525777e+02	-3.341850e-03	1.698007e+00	
4.538728e-01	6.124974e-01	2.081118e+02	9.693143e+03	-2.572339e+01	6.265691e+07	8.192325e+05	6.525539e+02	-4.606089e-03	1.697241e+00	
4.576044e-01	6.256135e-01	2.083234e+02	9.698265e+03	-2.194365e+01	6.272121e+07	8.193916e+05	6.525672e+02	-3.901490e-03	1.697626e+00	
4.666845e-01	6.210492e-01	2.080337e+02	9.690697e+03	-2.742741e+01	6.263313e+07	8.191736e+05	6.525491e+02	-4.866602e-03	1.697000e+00	
4.794175e-01	6.175110e-01	2.076594e+02	9.680849e+03	-3.457465e+01	6.251932e+07	8.188912e+05	6.525257e+02	-6.116553e-03	1.696154e+00	
5.070532e-01	6.234852e-01	2.070883e+02	9.665072e+03	-4.599796e+01	6.234565e+07	8.184590e+05	6.524899e+02	-8.029768e-03	1.694679e+00	
3.653101e-01	6.479557e-01	2.093510e+02	9.725269e+03	-2.550031e+00	6.303366e+07	8.201617e+05	6.526312e+02	-4.925767e-04	1.699741e+00	
3.668496e-01	6.383363e-01	2.093135e+02	9.724320e+03	-3.224990e+00	6.302226e+07	8.201337e+05	6.526288e+02	-6.165030e-04	1.699674e+00	
3.786539e-01	6.440106e-01	2.092836e+02	9.723531e+03	-3.780375e+00	6.301319e+07	8.201114e+05	6.526270e+02	-7.151735e-04	1.699614e+00	
3.728413e-01	6.310700e-01	2.092553e+02	9.722857e+03	-4.269599e+00	6.300457e+07	8.200902e+05	6.526252e+02	-8.090440e-04	1.699571e+00	
3.789231e-01	6.211819e-01	2.091696e+02	9.720737e+03	-5.782509e+00	6.297853e+07	8.200262e+05	6.526199e+02	-1.092532e-03	1.699424e+00	
3.935545e-01	6.438597e-01	2.092141e+02	9.721709e+03	-5.075295e+00	6.299203e+07	8.200594e+05	6.526227e+02	-9.454125e-04	1.699478e+00	
4.061564e-01	6.420409e-01	2.091215e+02	9.719277e+03	-6.810715e+00	6.296389e+07	8.199902e+05	6.526169e+02	-1.251818e-03	1.699294e+00	
3.851493e-01	6.101827e-01	2.090511e+02	9.717816e+03	-7.857589e+00	6.294251e+07	8.199376e+05	6.526125e+02	-1.484924e-03	1.699220e+00	
4.187329e-01	6.398481e-01	2.090124e+02	9.716415e+03	-8.860136e+00	6.293072e+07	8.199086e+05	6.526101e+02	-1.613178e-03	1.699075e+00	
3.905948e-01	5.976837e-01	2.088990e+02	9.714061e+03	-1.051561e+01	6.289627e+07	8.198237e+05	6.526030e+02	-1.989021e-03	1.698954e+00	
4.062003e-01	5.957474e-01	2.086938e+02	9.708811e+03	-1.430424e+01	6.283387e+07	8.196698e+05	6.525903e+02	-2.670029e-03	1.698555e+00	
4.307947e-01	6.039653e-01	2.084277e+02	9.701734e+03	-1.945706e+01	6.275296e+07	8.194701e+05	6.525737e+02	-3.554373e-03	1.697978e+00	
4.314116e-01	6.384782e-01	2.088852e+02	9.713063e+03	-1.125103e+01	6.289202e+07	8.198133e+05	6.526022e+02	-2.035019e-03	1.698814e+00	
4.433814e-01	6.371987e-01	2.087332e+02	9.709029e+03	-1.413504e+01	6.284583e+07	8.196994e+05	6.525927e+02	-2.539046e-03	1.698494e+00	
4.429765e-01	6.031773e-01	2.081582e+02	9.694760e+03	-2.449323e+01	6.267103e+07	8.192674e+05	6.525568e+02	-4.451527e-03	1.697413e+00	
4.544940e-01	6.361096e-01	2.085654e+02	9.704557e+03	-1.732636e+01	6.279480e+07	8.195735e+05	6.525823e+02	-3.096498e-03	1.698131e+00	
4.648641e-01	6.343171e-01	2.083522e+02	9.698877e+03	-2.139155e+01	6.272997e+07	8.194133e+05	6.525690e+02	-3.805455e-03	1.697663e+00	
4.756487e-01	6.318979e-01	2.080836e+02	9.691721e+03	-2.658074e+01	6.264828e+07	8.192112e+05	6.525522e+02	-4.700415e-03	1.697060e+00	
4.682529e-01	6.057862e-01	2.076525e+02	9.681194e+03	-3.438447e+01	6.251724e+07	8.188860e+05	6.525252e+02	-6.139665e-03	1.696230e+00	
4.874139e-01	6.304507e-01	2.077883e+02	9.683780e+03	-3.239542e+01	6.255849e+07	8.189885e+05	6.525337e+02	-5.685834e-03	1.696368e+00	
4.948574e-01	6.156508e-01	2.072092e+02	9.668797e+03	-4.334350e+01	6.238242e+07	8.185507e+05	6.524974e+02	-7.624237e-03	1.695064e+00	
4.985774e-01	6.316564e-01	2.075734e+02	9.677812e+03	-3.674742e+01	6.249313e+07	8.188262e+05	6.525203e+02	-6.404308e-03	1.695821e+00	
5.067925e-01	6.346607e-01	2.074689e+02	9.674809e+03	-3.879094e+01	6.246135e+07	8.187472e+05	6.525137e+02	-6.754030e-03	1.695533e+00	
5.148599e-01	6.321317e-01	2.071280e+02	9.665718e+03	-4.530446e+01	6.235771e+07	8.184892e+05	6.524924e+02	-7.896485e-03	1.694705e+00	
5.185012e-01	6.195774e-01	2.065770e+02	9.651390e+03	-5.582868e+01	6.219018e+07	8.180706e+05	6.524578e+02	-9.749239e-03	1.693383e+00	
5.254182e-01	6.305897e-01	2.067347e+02	9.655056e+03	-5.297024e+01	6.223810e+07	8.181905e+05	6.524677e+02	-9.218312e-03	1.693691e+00	
5.367681e-01	6.305271e-01	2.063443e+02	9.644262e+03	-6.067687e+01	6.211939e+07	8.178934e+05	6.524431e+02	-1.053391e-02	1.692619e+00	
5.312787e-01	6.182917e-01	2.060504e+02	9.637017e+03	-6.610722e+01	6.203003e+07	8.176690e+05	6.524246e+02	-1.152693e-02	1.691946e+00	
5.459659e-01	6.320433e-01	2.060917e+02	9.637203e+03	-6.551826e+01	6.204256e+07	8.177006e+05	6.524272e+02	-1.138727e-02	1.691896e+00	
5.536431e-01	6.289623e-01	2.055651e+02	9.623055e+03	-7.555124e+01	6.188245e+07	8.172976e+05	6.523940e+02	-1.317102e-02	1.690449e+00	
3.407384e-01	6.691099e-01	2.094407e+02	9.727538e+03	-9.873447e-01	6.306094e+07	8.202287e+05	6.526367e+02	-1.960070e-04	1.699900e+00	
3.473091e-01	6.594700e-01	2.094186e+02	9.726987e+03	-1.362486e+00	6.305423e+07	8.202123e+05	6.526354e+02	-2.688810e-04	1.699862e+00	
3.613167e-01	6.596620e-01	2.093895e+02	9.726252e+03	-1.864368e+00	6.304538e+07	8.201905e+05	6.526336e+02	-3.651560e-04	1.699811e+00	
3.522503e-01	6.488939e-01	2.093909e+02	9.726282e+03	-1.851449e+00	6.304579e+07	8.201915e+05	6.526337e+02	-3.606709e-04	1.699813e+00	
3.560789e-01	6.388785e-01	2.093571e+02	9.725429e+03	-2.453600e+00	6.303553e+07	8.201663e+05	6.526316e+02	-4.722114e-04	1.699753e+00	
3.752414e-01	6.579745e-01	2.093446e+02	9.725097e+03	-2.669661e+00	6.303171e+07	8.201569e+05	6.526308e+02	-5.137366e-04	1.699728e+00	
3.601701e-01	6.296856e-01	2.093111e+02	9.724286e+03	-3.262706e+00	6.302154e+07	8.201319e+05	6.526287e+02	-6.243883e-04	1.699674e+00	
3.890311e-01	6.561574e-01	2.092877e+02	9.723617e+03	-3.711052e+00	6.301444e+07	8.201145e+05	6.526272e+02	-7.016204e-04	1.699619e+00	
4.023911e-01	6.546457e-01	2.092183e+02	9.721797e+03	-4.995418e+00	6.299331e+07	8.200626e+05	6.526229e+02	-9.314910e-04	1.699482e+00	
3.702367e-01	6.099228e-01	2.091644e+02	9.720703e+03	-5.782074e+00	6.297696e+07	8.200223e+05	6.526196e+02	-1.109620e-03	1.699431e+00	
3.651272e-01	6.203216e-01	2.092488e+02	9.722758e+03	-4.339930e+00	6.300259e+07	8.200854e+05	6.526248e+02	-8.305884e-04	1.699571e+00	
4.150889e-01	6.528774e-01	2.091321e+02	9.719522e+03	-6.611247e+00	6.296713e+07	8.199982e+05	6.526176e+02	-1.216556e-03	1.699309e+00	
3.797418e-01	5.862061e-01	2.089083e+02	9.714460e+03	-1.014245e+01	6.289909e+07	8.198306e+05	6.526036e+02	-1.958321e-03	1.699000e+00	
3.751618e-01	5.985069e-01	2.090534e+02	9.717997e+03	-7.674607e+00	6.294322e+07	8.199393e+05	6.526127e+02	-1.477247e-03	1.699246e+00	
3.951681e-01	5.844118e-01	2.087008e+02	9.709208e+03	-1.391481e+01	6.283601e+07	8.196751e+05	6.525907e+02	-2.646830e-03	1.698606e+00	
4.213415e-01	5.933224e-01	2.084180e+02	9.701768e+03	-1.935549e+01	6.275001e+07	8.194627e+05	6.525731e+02	-3.586724e-03	1.698007e+00	
4.274870e-01	6.512092e-01	2.090313e+02	9.716856e+03	-8.506060e+00	6.293646e+07	8.199227e+05	6.526113e+02	-1.550527e-03	1.699103e+00	
4.365007e-01	5.921422e-01	2.080833e+02	9.693196e+03	-2.551108e+01	6.264828e+07	8.192110e+05	6.525522e+02	-4.701127e-03	1.697318e+00	
4.394959e-01	6.497701e-01	2.089135e+02	9.713736e+03	-1.072088e+01	6.290064e+07	8.198345e+05	6.526039e+02	-1.941024e-03	1.698860e+00	
4.509153e-01	6.484281e-01	2.087762e+02	9.710090e+03	-1.330746e+01	6.285889e+07	8.197316e+05	6.525954e+02	-2.396506e-03	1.698571e+00	
4.617474e-01	6.469864e-01	2.086128e+02	9.705743e+03	-1.639633e+01	6.280920e+07	8.196090e+05	6.525852e+02	-2.939099e-03	1.698221e+00	
4.722816e-01	6.453500e-01	2.084147e+02	9.700434e+03	-2.020389e+01	6.274895e+07	8.194603e+05	6.525729e+02	-3.597742e-03	1.697782e+00	
4.539058e-01	5.939364e-01	2.077021e+02	9.683109e+03	-3.289237e+01	6.253236e+07	8.189235e+05	6.525283e+02	-5.973727e-03	1.696450e+00	
4.835576e-01	6.016829e-01	2.071402e+02	9.667614e+03	-4.421285e+01	6.236149e+07	8.184984e+05	6.524931e+02	-7.855487e-03	1.695010e+00	
4.828363e-01	6.439455e-01	2.081924e+02	9.694416e+03	-2.457039e+01	6.268135e+07	8.192931e+05	6.525590e+02	-4.337802e-03	1.697270e+00	
4.931761e-01	6.434471e-01	2.079812e+02	9.688618e+03	-2.879261e+01	6.261715e+07	8.191341e+05	6.525458e+02	-5.041665e-03	1.696761e+00	
5.026432e-01	6.438352e-01	2.078050e+02	9.683771e+03	-3.223900e+01	6.256354e+07	8.190011e+05	6.525348e+02	-5.630086e-03	1.696327e+00	
5.114861e-01	6.436247e-01	2.075803e+02	9.677715e+03	-3.648043e+01	6.249523e+07	8.188315e+05	6.525207e+02	-6.381057e-03	1.695788e+00	
5.094623e-01	6.089985e-01	2.065330e+02	9.650782e+03	-5.637226e+01	6.217682e+07	8.180371e+05	6.524550e+02	-9.897524e-03	1.693369e+00	
5.208783e-01	6.426410e-01	2.072793e+02	9.669557e+03	-4.229823e+01	6.240370e+07	8.186038e+05	6.525018e+02	-7.389061e-03	1.695041e+00	
5.312083e-01	6.421333e-01	2.069539e+02	9.660639e+03	-4.865846e+01	6.230474e+07	8.183570e+05	6.524814e+02	-8.481305e-03	1.694197e+00	
5.237477e-01	6.057245e-01	2.058521e+02	9.632165e+03	-6.979031e+01	6.196977e+07	8.175175e+05	6.524121e+02	-1.219784e-02	1.691489e+00	
5.418838e-01	6.421281e-01	2.066308e+02	9.651810e+03	-5.485189e+01	6.220647e+07	8.181115e+05	6.524611e+02	-9.568345e-03	1.693343e+00	
5.456557e-01	6.196538e-01	2.054949e+02	9.621726e+03	-7.687326e+01	6.186113e+07	8.172438e+05	6.523896e+02	-1.340928e-02	1.690350e+00	
5.523533e-01	6.402855e-01	2.061740e+02	9.639444e+03	-6.350816e+01	6.206757e+07	8.177634e+05	6.524324e+02	-1.110926e-02	1.692122e+00	
5.382139e-01	6.053245e-01	2.052617e+02	9.615741e+03	-8.145037e+01	6.179021e+07	8.170647e+05	6.523749e+02	-1.420199e-02	1.689739e+00	
5.628892e-01	6.350551e-01	2.054521e+02	9.619839e+03	-7.745673e+01	6.184805e+07	8.172109e+05	6.523869e+02	-1.355507e-02	1.690100e+00	
3.329636e-01	6.786253e-01	2.094594e+02	9.728004e+03	-6.723079e-01	6.306664e+07	8.202427e+05	6.526379e+02	-1.339835e-04	1.699932e+00	
3.206167e-01	6.816511e-01	2.094725e+02	9.728329e+03	-4.541104e-01	6.307061e+07	8.202525e+05	6.526387e+02	-9.091198e-05	1.699954e+00	
3.224045e-01	6.728740e-01	2.094655e+02	9.728153e+03	-5.758570e-01	6.306848e+07	8.202472e+05	6.526383e+02	-1.140604e-04	1.699942e+00	
3.281386e-01	6.666231e-01	2.094543e+02	9.727875e+03	-7.641035e-01	6.306507e+07	8.202389e+05	6.526376e+02	-1.510290e-04	1.699923e+00	
3.453438e-01	6.794303e-01	2.094454e+02	9.727654e+03	-9.069588e-01	6.306236e+07	8.202322e+05	6.526370e+02	-1.805383e-04	1.699908e+00	
3.338340e-01	6.579929e-01	2.094388e+02	9.727491e+03	-1.026085e+00	6.306037e+07	8.202273e+05	6.526366e+02	-2.021078e-04	1.699897e+00	
3.554758e-01	6.728294e-01	2.094209e+02	9.727043e+03	-1.322412e+00	6.305492e+07	8.202139e+05	6.526355e+02	-2.614532e-04	1.699866e+00	
3.388879e-01	6.485838e-01	2.094186e+02	9.726982e+03	-1.378086e+00	6.305421e+07	8.202122e+05	6.526354e+02	-2.690707e-04	1.699862e+00	
3.709156e-01	6.709821e-01	2.093876e+02	9.726198e+03	-1.904387e+00	6.304479e+07	8.201891e+05	6.526334e+02	-3.715514e-04	1.699807e+00	
3.432499e-01	6.389272e-01	2.093925e+02	9.726327e+03	-1.838744e+00	6.304628e+07	8.201927e+05	6.526338e+02	-3.552865e-04	1.699816e+00	
3.473364e-01	6.294145e-01	2.093581e+02	9.725474e+03	-2.440735e+00	6.303583e+07	8.201670e+05	6.526316e+02	-4.690164e-04	1.699758e+00	
3.847873e-01	6.691554e-01	2.093447e+02	9.725093e+03	-2.672789e+00	6.303175e+07	8.201570e+05	6.526308e+02	-5.133486e-04	1.699727e+00	
3.981276e-01	6.674284e-01	2.092914e+02	9.723705e+03	-3.644431e+00	6.301554e+07	8.201172e+05	6.526275e+02	-6.896718e-04	1.699625e+00	
3.560403e-01	6.098771e-01	2.092513e+02	9.722883e+03	-4.246223e+00	6.300338e+07	8.200873e+05	6.526250e+02	-8.220260e-04	1.699586e+00	
3.515917e-01	6.198826e-01	2.093122e+02	9.724356e+03	-3.223564e+00	6.302188e+07	8.201328e+05	6.526288e+02	-6.206695e-04	1.699683e+00	
4.110073e-01	6.657687e-01	2.092257e+02	9.721982e+03	-4.856774e+00	6.299558e+07	8.200682e+05	6.526234e+02	-9.067943e-04	1.699495e+00	
4.108569e-01	5.822702e-01	2.084273e+02	9.702269e+03	-1.888983e+01	6.275287e+07	8.194698e+05	6.525736e+02	-3.555577e-03	1.698072e+00	
3.690300e-01	5.753451e-01	2.089265e+02	9.715048e+03	-9.638374e+00	6.290463e+07	8.198442e+05	6.526048e+02	-1.897972e-03	1.699056e+00	
3.647832e-01	5.875722e-01	2.090657e+02	9.718405e+03	-7.333717e+00	6.294694e+07	8.199484e+05	6.526134e+02	-1.436717e-03	1.699286e+00	
3.604736e-01	5.991159e-01	2.091711e+02	9.720947e+03	-5.583101e+00	6.297899e+07	8.200273e+05	6.526200e+02	-1.087586e-03	1.699457e+00	
3.842624e-01	5.733451e-01	2.087178e+02	9.709838e+03	-1.334300e+01	6.284121e+07	8.196879e+05	6.525918e+02	-2.590129e-03	1.698674e+00	
4.234579e-01	6.641500e-01	2.091466e+02	9.719890e+03	-6.335060e+00	6.297152e+07	8.200090e+05	6.526185e+02	-1.168748e-03	1.699336e+00	
4.267771e-01	5.803084e-01	2.080757e+02	9.693305e+03	-2.530219e+01	6.264598e+07	8.192053e+05	6.525517e+02	-4.726477e-03	1.697355e+00	
4.355110e-01	6.626510e-01	2.090537e+02	9.717428e+03	-8.075105e+00	6.294326e+07	8.199395e+05	6.526127e+02	-1.476480e-03	1.699146e+00	
4.471007e-01	6.612659e-01	2.089452e+02	9.714552e+03	-1.010670e+01	6.291027e+07	8.198582e+05	6.526059e+02	-1.835970e-03	1.698922e+00	
4.581791e-01	6.599167e-01	2.088179e+02	9.711174e+03	-1.249579e+01	6.287157e+07	8.197629e+05	6.525980e+02	-2.258061e-03	1.698655e+00	
4.688034e-01	6.585485e-01	2.086680e+02	9.707176e+03	-1.533898e+01	6.282598e+07	8.196505e+05	6.525887e+02	-2.755736e-03	1.698333e+00	
4.433148e-01	5.789456e-01	2.076442e+02	9.682135e+03	-3.337114e+01	6.251477e+07	8.188798e+05	6.525247e+02	-6.167439e-03	1.696414e+00	
4.719073e-01	5.893695e-01	2.071276e+02	9.667889e+03	-4.396242e+01	6.235769e+07	8.184889e+05	6.524923e+02	-7.897675e-03	1.695085e+00	
4.790949e-01	6.572562e-01	2.084965e+02	9.702556e+03	-1.865222e+01	6.277385e+07	8.195218e+05	6.525780e+02	-3.325450e-03	1.697952e+00	
4.890736e-01	6.562797e-01	2.083152e+02	9.697611e+03	-2.221630e+01	6.271870e+07	8.193855e+05	6.525666e+02	-3.928699e-03	1.697532e+00	
4.986115e-01	6.557295e-01	2.081365e+02	9.692716e+03	-2.571916e+01	6.266435e+07	8.192510e+05	6.525555e+02	-4.523967e-03	1.697107e+00	
4.989342e-01	5.976570e-01	2.065172e+02	9.650898e+03	-5.631006e+01	6.217205e+07	8.180251e+05	6.524540e+02	-9.950678e-03	1.693422e+00	
5.077381e-01	6.553167e-01	2.079472e+02	9.687590e+03	-2.933045e+01	6.260679e+07	8.191084e+05	6.525437e+02	-5.155221e-03	1.696661e+00	
5.142844e-01	5.935954e-01	2.057389e+02	9.629700e+03	-7.169468e+01	6.193538e+07	8.174308e+05	6.524050e+02	-1.258129e-02	1.691278e+00	
5.614855e-01	6.190162e-01	2.047448e+02	9.601137e+03	-9.121356e+01	6.163303e+07	8.166667e+05	6.523422e+02	-1.596379e-02	1.688112e+00	
5.450258e-01	5.944567e-01	2.044119e+02	9.592027e+03	-9.857769e+01	6.153178e+07	8.164096e+05	6.523211e+02	-1.710214e-02	1.687092e+00	
5.524655e-01	6.051700e-01	2.045823e+02	9.596897e+03	-9.455778e+01	6.158362e+07	8.165413e+05	6.523319e+02	-1.651907e-02	1.687652e+00	
5.369001e-01	6.543559e-01	2.071571e+02	9.666153e+03	-4.450699e+01	6.236652e+07	8.185112e+05	6.524942e+02	-7.799091e-03	1.694717e+00	
5.168745e-01	6.547630e-01	2.077198e+02	9.681456e+03	-3.365383e+01	6.253764e+07	8.189368e+05	6.525294e+02	-5.914705e-03	1.696120e+00	
5.265078e-01	6.543157e-01	2.074537e+02	9.674225e+03	-3.878506e+01	6.245671e+07	8.187357e+05	6.525128e+02	-6.805027e-03	1.695466e+00	
5.490343e-01	6.551803e-01	2.067938e+02	9.656299e+03	-5.144467e+01	6.225606e+07	8.182355e+05	6.524714e+02	-9.019537e-03	1.693782e+00	
5.739054e-01	6.452130e-01	2.054159e+02	9.618967e+03	-7.784546e+01	6.183707e+07	8.171831e+05	6.523846e+02	-1.367783e-02	1.690015e+00	
5.612676e-01	6.500140e-01	2.061732e+02	9.639529e+03	-6.325877e+01	6.206735e+07	8.177628e+05	6.524324e+02	-1.111175e-02	1.692138e+00	
3.038590e-01	6.973654e-01	2.094869e+02	9.728690e+03	-2.143201e-01	6.307500e+07	8.202633e+05	6.526396e+02	-4.313603e-05	1.699978e+00	
3.044263e-01	6.882657e-01	2.094841e+02	9.728617e+03	-2.633478e-01	6.307413e+07	8.202611e+05	6.526394e+02	-5.257213e-05	1.699973e+00	
3.156541e-01	6.928949e-01	2.094801e+02	9.728522e+03	-3.252967e-01	6.307294e+07	8.202582e+05	6.526392e+02	-6.557707e-05	1.699967e+00	
3.296777e-01	6.913784e-01	2.094710e+02	9.728294e+03	-4.761619e-01	6.307015e+07	8.202513e+05	6.526386e+02	-9.588501e-05	1.699952e+00	
3.089409e-01	6.814818e-01	2.094795e+02	9.728502e+03	-3.413253e-01	6.307273e+07	8.202577e+05	6.526392e+02	-6.784178e-05	1.699966e+00	
3.126288e-01	6.729185e-01	2.094736e+02	9.728353e+03	-4.438572e-01	6.307093e+07	8.202533e+05	6.526388e+02	-8.733615e-05	1.699955e+00	
3.422353e-01	6.896372e-01	2.094589e+02	9.727993e+03	-6.764881e-01	6.306647e+07	8.202423e+05	6.526379e+02	-1.358499e-04	1.699931e+00	
3.164680e-01	6.648264e-01	2.094652e+02	9.728147e+03	-5.861928e-01	6.306841e+07	8.202471e+05	6.526383e+02	-1.148212e-04	1.699941e+00	
3.210426e-01	6.566766e-01	2.094541e+02	9.727872e+03	-7.748054e-01	6.306501e+07	8.202387e+05	6.526376e+02	-1.517391e-04	1.699923e+00	
3.542796e-01	6.871512e-01	2.094411e+02	9.727548e+03	-9.771372e-01	6.306107e+07	8.202291e+05	6.526368e+02	-1.945447e-04	1.699901e+00	
3.256081e-01	6.478439e-01	2.094393e+02	9.727506e+03	-1.027210e+00	6.306053e+07	8.202277e+05	6.526367e+02	-2.004398e-04	1.699898e+00	
3.669785e-01	6.842330e-01	2.094174e+02	9.726950e+03	-1.386699e+00	6.305385e+07	8.202113e+05	6.526353e+02	-2.730386e-04	1.699859e+00	
3.299007e-01	6.386221e-01	2.094201e+02	9.727028e+03	-1.361193e+00	6.305467e+07	8.202133e+05	6.526355e+02	-2.641346e-04	1.699866e+00	
3.339651e-01	6.292382e-01	2.093948e+02	9.726404e+03	-1.798349e+00	6.304698e+07	8.201945e+05	6.526339e+02	-3.476833e-04	1.699824e+00	
3.804682e-01	6.821519e-01	2.093863e+02	9.726160e+03	-1.930712e+00	6.304440e+07	8.201881e+05	6.526334e+02	-3.757843e-04	1.699804e+00	
3.936996e-01	6.803302e-01	2.093464e+02	9.725133e+03	-2.644938e+00	6.303226e+07	8.201583e+05	6.526309e+02	-5.077788e-04	1.699729e+00	
3.420662e-01	6.099311e-01	2.093174e+02	9.724530e+03	-3.098237e+00	6.302347e+07	8.201367e+05	6.526291e+02	-6.034180e-04	1.699700e+00	
3.379841e-01	6.197321e-01	2.093614e+02	9.725592e+03	-2.365184e+00	6.303685e+07	8.201696e+05	6.526318e+02	-4.579285e-04	1.699770e+00	
4.066019e-01	6.786506e-01	2.092966e+02	9.723838e+03	-3.550370e+00	6.301713e+07	8.201211e+05	6.526278e+02	-6.723764e-04	1.699634e+00	
4.000354e-01	5.711309e-01	2.084437e+02	9.702950e+03	-1.826572e+01	6.275787e+07	8.194821e+05	6.525747e+02	-3.501046e-03	1.698151e+00	
3.461802e-01	5.996089e-01	2.092596e+02	9.723143e+03	-4.048086e+00	6.300589e+07	8.200935e+05	6.526255e+02	-7.947539e-04	1.699610e+00	
4.191417e-01	6.770756e-01	2.092358e+02	9.722244e+03	-4.670799e+00	6.299865e+07	8.200757e+05	6.526240e+02	-8.734317e-04	1.699515e+00	
4.162280e-01	5.688655e-01	2.080862e+02	9.693887e+03	-2.474900e+01	6.264918e+07	8.192132e+05	6.525523e+02	-4.691547e-03	1.697432e+00	
4.312975e-01	6.756049e-01	2.091632e+02	9.720327e+03	-6.020633e+00	6.297657e+07	8.200214e+05	6.526195e+02	-1.113700e-03	1.699369e+00	
3.584188e-01	5.648101e-01	2.089504e+02	9.715748e+03	-9.059228e+00	6.291190e+07	8.198621e+05	6.526062e+02	-1.818721e-03	1.699117e+00	
3.543330e-01	5.770125e-01	2.090836e+02	9.718939e+03	-6.901646e+00	6.295239e+07	8.199619e+05	6.526145e+02	-1.377350e-03	1.699333e+00	
3.733846e-01	5.624988e-01	2.087426e+02	9.710619e+03	-1.266570e+01	6.284874e+07	8.197064e+05	6.525933e+02	-2.507974e-03	1.698748e+00	
3.502662e-01	5.886358e-01	2.091837e+02	9.721329e+03	-5.282889e+00	6.298281e+07	8.200367e+05	6.526208e+02	-1.046003e-03	1.699491e+00	
4.430359e-01	6.742410e-01	2.090779e+02	9.718070e+03	-7.610887e+00	6.295064e+07	8.199576e+05	6.526142e+02	-1.396049e-03	1.699195e+00	
4.543144e-01	6.729550e-01	2.089784e+02	9.715432e+03	-9.471293e+00	6.292037e+07	8.198831e+05	6.526080e+02	-1.725964e-03	1.698991e+00	
4.651213e-01	6.717116e-01	2.088624e+02	9.712352e+03	-1.165001e+01	6.288510e+07	8.197962e+05	6.526008e+02	-2.110480e-03	1.698748e+00	
4.327776e-01	5.666718e-01	2.076304e+02	9.682160e+03	-3.317486e+01	6.251059e+07	8.188693e+05	6.525238e+02	-6.213517e-03	1.696449e+00	
4.604098e-01	5.768300e-01	2.071075e+02	9.667952e+03	-4.371628e+01	6.235160e+07	8.184736e+05	6.524911e+02	-7.965176e-03	1.695140e+00	
4.754852e-01	6.705188e-01	2.087292e+02	9.708792e+03	-1.418193e+01	6.284460e+07	8.196964e+05	6.525925e+02	-2.552404e-03	1.698462e+00	
4.854361e-01	6.694480e-01	2.085817e+02	9.704810e+03	-1.702671e+01	6.279975e+07	8.195857e+05	6.525833e+02	-3.042302e-03	1.698135e+00	
4.881007e-01	5.855636e-01	2.064626e+02	9.650017e+03	-5.693569e+01	6.215546e+07	8.179835e+05	6.524506e+02	-1.013481e-02	1.693381e+00	
5.037491e-01	5.820155e-01	2.056831e+02	9.628840e+03	-7.233690e+01	6.191844e+07	8.173881e+05	6.524015e+02	-1.277039e-02	1.691235e+00	
4.949785e-01	6.685715e-01	2.084252e+02	9.700556e+03	-2.006421e+01	6.275216e+07	8.194682e+05	6.525735e+02	-3.562556e-03	1.697778e+00	
5.041581e-01	6.678668e-01	2.082598e+02	9.696064e+03	-2.324616e+01	6.270186e+07	8.193438e+05	6.525632e+02	-4.113106e-03	1.697395e+00	
5.312784e-01	5.902344e-01	2.048266e+02	9.604136e+03	-9.026630e+01	6.165795e+07	8.167299e+05	6.523474e+02	-1.568409e-02	1.688494e+00	
5.319427e-01	6.667866e-01	2.076349e+02	9.679157e+03	-3.522195e+01	6.251183e+07	8.188727e+05	6.525241e+02	-6.198457e-03	1.695914e+00	
5.223443e-01	6.668276e-01	2.078672e+02	9.685469e+03	-3.072653e+01	6.258248e+07	8.190481e+05	6.525387e+02	-5.422146e-03	1.696478e+00	
5.131729e-01	6.672629e-01	2.080764e+02	9.691115e+03	-2.673304e+01	6.264609e+07	8.192058e+05	6.525517e+02	-4.724243e-03	1.696971e+00	
5.419464e-01	6.673610e-01	2.073891e+02	9.672436e+03	-4.002059e+01	6.243707e+07	8.186869e+05	6.525087e+02	-7.021267e-03	1.695298e+00	
5.576401e-01	5.906297e-01	2.034358e+02	9.564524e+03	-1.180327e+02	6.123496e+07	8.156517e+05	6.522591e+02	-2.045684e-02	1.683840e+00	
5.663440e-01	6.034652e-01	2.037190e+02	9.573028e+03	-1.111851e+02	6.132112e+07	8.158722e+05	6.522771e+02	-1.948087e-02	1.684891e+00	
5.507166e-01	6.693302e-01	2.072116e+02	9.667653e+03	-4.341384e+01	6.238310e+07	8.185525e+05	6.524976e+02	-7.616245e-03	1.694859e+00	
5.746919e-01	6.283362e-01	2.045753e+02	9.596044e+03	-9.443019e+01	6.158145e+07	8.165358e+05	6.523314e+02	-1.654329e-02	1.687515e+00	
5.850271e-01	6.594956e-01	2.054998e+02	9.621241e+03	-7.631720e+01	6.186258e+07	8.172475e+05	6.523899e+02	-1.339285e-02	1.690255e+00	
5.592673e-01	6.649551e-01	2.067789e+02	9.655984e+03	-5.166114e+01	6.225153e+07	8.182241e+05	6.524704e+02	-9.069664e-03	1.693759e+00	
5.707123e-01	6.611485e-01	2.061998e+02	9.640362e+03	-6.272985e+01	6.207542e+07	8.177830e+05	6.524340e+02	-1.102219e-02	1.692230e+00	
2.823534e-01	7.163526e-01	2.094951e+02	9.728889e+03	-8.371706e-02	6.307747e+07	8.202693e+05	6.526401e+02	-1.625898e-05	1.699992e+00	
2.932596e-01	7.161469e-01	2.094932e+02	9.728843e+03	-1.136106e-01	6.307691e+07	8.202679e+05	6.526400e+02	-2.242301e-05	1.699989e+00	
2.876215e-01	7.071533e-01	2.094930e+02	9.728839e+03	-1.170535e-01	6.307685e+07	8.202678e+05	6.526400e+02	-2.305223e-05	1.699988e+00	
2.919555e-01	6.982588e-01	2.094907e+02	9.728782e+03	-1.548663e-01	6.307614e+07	8.202661e+05	6.526399e+02	-3.074241e-05	1.699985e+00	
3.009311e-01	7.095364e-01	2.094902e+02	9.728771e+03	-1.609731e-01	6.307600e+07	8.202657e+05	6.526398e+02	-3.225839e-05	1.699984e+00	
2.948049e-01	6.890673e-01	2.094881e+02	9.728715e+03	-1.998114e-01	6.307534e+07	8.202641e+05	6.526397e+02	-3.940203e-05	1.699980e+00	
3.140417e-01	7.065317e-01	2.094854e+02	9.728653e+03	-2.378043e-01	6.307455e+07	8.202621e+05	6.526395e+02	-4.807015e-05	1.699976e+00	
3.264668e-01	7.038688e-01	2.094788e+02	9.728490e+03	-3.451410e-01	6.307253e+07	8.202572e+05	6.526391e+02	-6.996927e-05	1.699965e+00	
2.977170e-01	6.807649e-01	2.094846e+02	9.728628e+03	-2.597728e-01	6.307429e+07	8.202615e+05	6.526395e+02	-5.087965e-05	1.699974e+00	
3.012080e-01	6.726599e-01	2.094801e+02	9.728515e+03	-3.379999e-01	6.307291e+07	8.202581e+05	6.526392e+02	-6.589189e-05	1.699966e+00	
3.389352e-01	7.017818e-01	2.094697e+02	9.728266e+03	-4.924705e-01	6.306977e+07	8.202504e+05	6.526386e+02	-9.996723e-05	1.699950e+00	
3.047648e-01	6.643156e-01	2.094740e+02	9.728366e+03	-4.421130e-01	6.307107e+07	8.202536e+05	6.526388e+02	-8.586793e-05	1.699956e+00	
3.085489e-01	6.559053e-01	2.094659e+02	9.728168e+03	-5.790093e-01	6.306861e+07	8.202476e+05	6.526383e+02	-1.126165e-04	1.699943e+00	
3.511662e-01	6.996271e-01	2.094570e+02	9.727949e+03	-7.034949e-01	6.306591e+07	8.202409e+05	6.526378e+02	-1.419811e-04	1.699929e+00	
3.125236e-01	6.472496e-01	2.094552e+02	9.727906e+03	-7.591996e-01	6.306536e+07	8.202396e+05	6.526377e+02	-1.479113e-04	1.699926e+00	
3.635288e-01	6.972990e-01	2.094395e+02	9.727508e+03	-1.002881e+00	6.306057e+07	8.202278e+05	6.526367e+02	-1.999571e-04	1.699898e+00	
3.164915e-01	6.382748e-01	2.094412e+02	9.727563e+03	-9.967175e-01	6.306111e+07	8.202291e+05	6.526368e+02	-1.941656e-04	1.699903e+00	
3.203834e-01	6.290673e-01	2.094229e+02	9.727114e+03	-1.308074e+00	6.305553e+07	8.202154e+05	6.526356e+02	-2.547696e-04	1.699873e+00	
3.762748e-01	6.950953e-01	2.094165e+02	9.726928e+03	-1.400620e+00	6.305360e+07	8.202107e+05	6.526352e+02	-2.757936e-04	1.699858e+00	
3.892053e-01	6.931866e-01	2.093870e+02	9.726177e+03	-1.920091e+00	6.304462e+07	8.201887e+05	6.526334e+02	-3.733448e-04	1.699804e+00	
3.242383e-01	6.196740e-01	2.093988e+02	9.726529e+03	-1.713295e+00	6.304821e+07	8.201975e+05	6.526341e+02	-3.343720e-04	1.699835e+00	
3.281155e-01	6.100362e-01	2.093671e+02	9.725766e+03	-2.238159e+00	6.303858e+07	8.201738e+05	6.526322e+02	-4.390927e-04	1.699785e+00	
4.020187e-01	6.914779e-01	2.093497e+02	9.725216e+03	-2.589066e+00	6.303327e+07	8.201608e+05	6.526311e+02	-4.967846e-04	1.699735e+00	
3.320309e-01	6.000146e-01	2.093255e+02	9.724770e+03	-2.917258e+00	6.302592e+07	8.201427e+05	6.526296e+02	-5.767611e-04	1.699721e+00	
4.145858e-01	6.899177e-01	2.093035e+02	9.724016e+03	-3.428984e+00	6.301923e+07	8.201263e+05	6.526282e+02	-6.494931e-04	1.699647e+00	
4.054119e-01	5.576104e-01	2.081098e+02	9.694815e+03	-2.389618e+01	6.265637e+07	8.192309e+05	6.525538e+02	-4.612847e-03	1.697538e+00	
4.268348e-01	6.884844e-01	2.092476e+02	9.722552e+03	-4.457728e+00	6.300223e+07	8.200845e+05	6.526247e+02	-8.344570e-04	1.699538e+00	
3.891109e-01	5.600518e-01	2.084692e+02	9.703834e+03	-1.747137e+01	6.276563e+07	8.195012e+05	6.525763e+02	-3.416295e-03	1.698242e+00	
3.359707e-01	5.894641e-01	2.092708e+02	9.723468e+03	-3.796840e+00	6.300931e+07	8.201019e+05	6.526262e+02	-7.575588e-04	1.699637e+00	
4.387133e-01	6.871651e-01	2.091812e+02	9.720802e+03	-5.688911e+00	6.298203e+07	8.200348e+05	6.526206e+02	-1.054322e-03	1.699405e+00	
4.501762e-01	6.859406e-01	2.091033e+02	9.718744e+03	-7.137991e+00	6.295834e+07	8.199766e+05	6.526158e+02	-1.312214e-03	1.699248e+00	
3.399513e-01	5.783097e-01	2.091990e+02	9.721766e+03	-4.939082e+00	6.298748e+07	8.200482e+05	6.526217e+02	-9.951732e-04	1.699527e+00	
3.481192e-01	5.547212e-01	2.089788e+02	9.716528e+03	-8.439018e+00	6.292053e+07	8.198834e+05	6.526080e+02	-1.724673e-03	1.699181e+00	
3.440309e-01	5.666232e-01	2.091044e+02	9.719525e+03	-6.434010e+00	6.295873e+07	8.199774e+05	6.526158e+02	-1.308332e-03	1.699381e+00	
3.624337e-01	5.518763e-01	2.087741e+02	9.711534e+03	-1.190934e+01	6.285834e+07	8.197301e+05	6.525953e+02	-2.403242e-03	1.698828e+00	
4.611904e-01	6.847849e-01	2.090127e+02	9.716346e+03	-8.829125e+00	6.293081e+07	8.199088e+05	6.526101e+02	-1.612170e-03	1.699062e+00	
4.220606e-01	5.551341e-01	2.076416e+02	9.682863e+03	-3.245958e+01	6.251404e+07	8.188779e+05	6.525245e+02	-6.175788e-03	1.696546e+00	
4.496141e-01	5.643327e-01	2.070617e+02	9.667261e+03	-4.397740e+01	6.233771e+07	8.184389e+05	6.524882e+02	-8.118812e-03	1.695119e+00	
4.717439e-01	6.836825e-01	2.089085e+02	9.713578e+03	-1.078831e+01	6.289913e+07	8.198308e+05	6.526036e+02	-1.957477e-03	1.698845e+00	
4.772436e-01	5.735695e-01	2.064101e+02	9.649279e+03	-5.733322e+01	6.213953e+07	8.179435e+05	6.524473e+02	-1.031179e-02	1.693360e+00	
4.934870e-01	5.704178e-01	2.055880e+02	9.627024e+03	-7.356475e+01	6.188955e+07	8.173152e+05	6.523955e+02	-1.309302e-02	1.691099e+00	
4.818419e-01	6.826432e-01	2.087910e+02	9.710433e+03	-1.302148e+01	6.286338e+07	8.197427e+05	6.525963e+02	-2.347474e-03	1.698594e+00	