TITLE = "Visualization of the solution"
VARIABLES = "x","y","Density","Momentum_x","Momentum_y","Energy","Pressure","Temperature","Pressure_Coefficient","Mach"
ZONE NODES= 16759, ELEMENTS= 33037, DATAPACKING=POINT, ZONETYPE=FEQUADRILATERAL
9.956316e-01	9.956211e-01	2.067803e+02	9.650953e+03	-5.481270e+00	6.225169e+07	8.182250e+05	6.524705e+02	-9.065705e-03	1.692850e+00	
4.376141e-03	9.956289e-01	2.095000e+02	9.729012e+03	-3.314984e-11	6.307897e+07	8.202730e+05	6.526404e+02	8.760635e-15	1.700000e+00	
4.617303e-01	5.232482e-01	2.093710e+02	9.725821e+03	-2.060296e+00	6.303977e+07	8.201767e+05	6.526324e+02	-4.261747e-04	1.699785e+00	
4.682197e-01	5.244715e-01	2.093353e+02	9.724922e+03	-2.651561e+00	6.302890e+07	8.201500e+05	6.526302e+02	-5.443134e-04	1.699722e+00	
4.740709e-01	5.240944e-01	2.092887e+02	9.723740e+03	-3.438011e+00	6.301473e+07	8.201152e+05	6.526273e+02	-6.984487e-04	1.699638e+00	
4.784385e-01	5.225968e-01	2.092338e+02	9.722336e+03	-4.388837e+00	6.299805e+07	8.200742e+05	6.526239e+02	-8.799491e-04	1.699536e+00	
4.829446e-01	5.230114e-01	2.091894e+02	9.721212e+03	-5.142988e+00	6.298454e+07	8.200410e+05	6.526211e+02	-1.027010e-03	1.699455e+00	
4.873404e-01	5.219282e-01	2.091160e+02	9.719336e+03	-6.423326e+00	6.296223e+07	8.199861e+05	6.526166e+02	-1.269994e-03	1.699318e+00	
4.920295e-01	5.228042e-01	2.090608e+02	9.717926e+03	-7.383809e+00	6.294543e+07	8.199448e+05	6.526131e+02	-1.452981e-03	1.699214e+00	
4.979598e-01	5.224697e-01	2.089599e+02	9.715345e+03	-9.150503e+00	6.291476e+07	8.198693e+05	6.526068e+02	-1.787254e-03	1.699023e+00	
5.028468e-01	5.210355e-01	2.088280e+02	9.711960e+03	-1.148807e+01	6.287465e+07	8.197704e+05	6.525986e+02	-2.224715e-03	1.698767e+00	
5.080829e-01	5.219106e-01	2.087269e+02	9.709336e+03	-1.332498e+01	6.284392e+07	8.196947e+05	6.525923e+02	-2.560157e-03	1.698563e+00	
5.147462e-01	5.218806e-01	2.085577e+02	9.704919e+03	-1.640595e+01	6.279248e+07	8.195677e+05	6.525818e+02	-3.122152e-03	1.698213e+00	
5.215631e-01	5.213030e-01	2.083455e+02	9.699349e+03	-2.027230e+01	6.272795e+07	8.194082e+05	6.525685e+02	-3.827963e-03	1.697761e+00	
5.280867e-01	5.202262e-01	2.080964e+02	9.692809e+03	-2.478202e+01	6.265221e+07	8.192208e+05	6.525530e+02	-4.657684e-03	1.697219e+00	
5.421557e-01	5.245942e-01	2.076559e+02	9.681468e+03	-3.250909e+01	6.251830e+07	8.188886e+05	6.525254e+02	-6.128259e-03	1.696269e+00	
5.376653e-01	5.189837e-01	2.076157e+02	9.680229e+03	-3.342090e+01	6.250606e+07	8.188582e+05	6.525229e+02	-6.262810e-03	1.696145e+00	
5.329441e-01	5.184928e-01	2.078183e+02	9.685517e+03	-2.981152e+01	6.256767e+07	8.190112e+05	6.525356e+02	-5.585495e-03	1.696601e+00	
5.467905e-01	5.186905e-01	2.070209e+02	9.664638e+03	-4.414507e+01	6.232521e+07	8.184079e+05	6.524856e+02	-8.256300e-03	1.694749e+00	
5.421443e-01	5.178714e-01	2.072686e+02	9.671136e+03	-3.967993e+01	6.240053e+07	8.185957e+05	6.525012e+02	-7.425048e-03	1.695340e+00	
5.498427e-01	5.253043e-01	2.072167e+02	9.670011e+03	-4.042528e+01	6.238475e+07	8.185563e+05	6.524979e+02	-7.599155e-03	1.695258e+00	
4.147404e-01	5.358543e-01	2.094909e+02	9.728804e+03	-1.186459e-01	6.307621e+07	8.202662e+05	6.526399e+02	-2.999615e-05	1.699988e+00	
4.150164e-01	5.286953e-01	2.094886e+02	9.728745e+03	-1.558807e-01	6.307551e+07	8.202645e+05	6.526397e+02	-3.758441e-05	1.699984e+00	
4.215201e-01	5.344173e-01	2.094861e+02	9.728690e+03	-1.857243e-01	6.307474e+07	8.202626e+05	6.526396e+02	-4.597122e-05	1.699981e+00	
4.204216e-01	5.272983e-01	2.094838e+02	9.728627e+03	-2.284506e-01	6.307403e+07	8.202609e+05	6.526394e+02	-5.365508e-05	1.699976e+00	
4.262078e-01	5.277169e-01	2.094786e+02	9.728505e+03	-3.011074e-01	6.307248e+07	8.202571e+05	6.526391e+02	-7.054076e-05	1.699968e+00	
4.334950e-01	5.284494e-01	2.094694e+02	9.728286e+03	-4.346241e-01	6.306968e+07	8.202502e+05	6.526385e+02	-1.010185e-04	1.699955e+00	
4.298035e-01	5.240439e-01	2.094711e+02	9.728314e+03	-4.247929e-01	6.307018e+07	8.202514e+05	6.526386e+02	-9.558662e-05	1.699955e+00	
4.328168e-01	5.229025e-01	2.094637e+02	9.728132e+03	-5.422858e-01	6.306793e+07	8.202459e+05	6.526382e+02	-1.199869e-04	1.699943e+00	
4.412524e-01	5.282642e-01	2.094544e+02	9.727920e+03	-6.697344e-01	6.306510e+07	8.202389e+05	6.526376e+02	-1.507752e-04	1.699931e+00	
4.366792e-01	5.231933e-01	2.094564e+02	9.727954e+03	-6.541392e-01	6.306571e+07	8.202404e+05	6.526377e+02	-1.440909e-04	1.699931e+00	
4.405800e-01	5.219917e-01	2.094444e+02	9.727655e+03	-8.508942e-01	6.306205e+07	8.202315e+05	6.526370e+02	-1.838590e-04	1.699911e+00	
4.449114e-01	5.224599e-01	2.094335e+02	9.727389e+03	-1.025206e+00	6.305877e+07	8.202234e+05	6.526363e+02	-2.195587e-04	1.699893e+00	
4.496317e-01	5.282211e-01	2.094328e+02	9.727385e+03	-1.020589e+00	6.305854e+07	8.202228e+05	6.526363e+02	-2.221118e-04	1.699895e+00	
4.576980e-01	5.297375e-01	2.094094e+02	9.726807e+03	-1.396662e+00	6.305142e+07	8.202053e+05	6.526348e+02	-2.994959e-04	1.699856e+00	
4.548225e-01	5.218876e-01	2.093979e+02	9.726490e+03	-1.624574e+00	6.304793e+07	8.201968e+05	6.526341e+02	-3.374567e-04	1.699831e+00	
4.493817e-01	5.212330e-01	2.094146e+02	9.726910e+03	-1.347464e+00	6.305300e+07	8.202092e+05	6.526351e+02	-2.823370e-04	1.699860e+00	
4.586868e-01	5.184834e-01	2.093655e+02	9.725664e+03	-2.187114e+00	6.303807e+07	8.201726e+05	6.526321e+02	-4.446184e-04	1.699772e+00	
4.618355e-01	5.176705e-01	2.093369e+02	9.724944e+03	-2.673798e+00	6.302939e+07	8.201512e+05	6.526303e+02	-5.390209e-04	1.699721e+00	
4.649796e-01	5.305003e-01	2.093800e+02	9.726085e+03	-1.865186e+00	6.304250e+07	8.201834e+05	6.526330e+02	-3.964730e-04	1.699807e+00	
4.656730e-01	5.186407e-01	2.093162e+02	9.724414e+03	-3.028457e+00	6.302308e+07	8.201357e+05	6.526290e+02	-6.076013e-04	1.699683e+00	
4.719784e-01	5.304481e-01	2.093388e+02	9.725058e+03	-2.537531e+00	6.302996e+07	8.201526e+05	6.526304e+02	-5.328133e-04	1.699736e+00	
4.706953e-01	5.187890e-01	2.092778e+02	9.723437e+03	-3.682105e+00	6.301143e+07	8.201071e+05	6.526266e+02	-7.343562e-04	1.699613e+00	
4.755532e-01	5.182915e-01	2.092274e+02	9.722158e+03	-4.540842e+00	6.299610e+07	8.200694e+05	6.526235e+02	-9.011945e-04	1.699522e+00	
4.793566e-01	5.289072e-01	2.092749e+02	9.723443e+03	-3.615280e+00	6.301055e+07	8.201049e+05	6.526264e+02	-7.440353e-04	1.699622e+00	
4.801421e-01	5.178165e-01	2.091689e+02	9.720670e+03	-5.542111e+00	6.297830e+07	8.200256e+05	6.526198e+02	-1.095000e-03	1.699414e+00	
4.847141e-01	5.174460e-01	2.091032e+02	9.719006e+03	-6.663879e+00	6.295834e+07	8.199765e+05	6.526158e+02	-1.312325e-03	1.699294e+00	
4.875822e-01	5.283598e-01	2.091897e+02	9.721279e+03	-5.077662e+00	6.298465e+07	8.200412e+05	6.526211e+02	-1.025940e-03	1.699466e+00	
4.894179e-01	5.171906e-01	2.090244e+02	9.716993e+03	-8.035065e+00	6.293436e+07	8.199175e+05	6.526109e+02	-1.573592e-03	1.699145e+00	
4.945064e-01	5.169945e-01	2.089330e+02	9.714647e+03	-9.640301e+00	6.290658e+07	8.198491e+05	6.526052e+02	-1.876446e-03	1.698969e+00	
4.954074e-01	5.289213e-01	2.090903e+02	9.718754e+03	-6.796507e+00	6.295442e+07	8.199669e+05	6.526150e+02	-1.355063e-03	1.699283e+00	
4.998022e-01	5.163980e-01	2.088116e+02	9.711546e+03	-1.176025e+01	6.286969e+07	8.197582e+05	6.525976e+02	-2.278938e-03	1.698736e+00	
5.032571e-01	5.277631e-01	2.089479e+02	9.715091e+03	-9.322720e+00	6.291112e+07	8.198603e+05	6.526061e+02	-1.826954e-03	1.699009e+00	
5.112624e-01	5.284287e-01	2.087937e+02	9.711102e+03	-1.209249e+01	6.286423e+07	8.197447e+05	6.525965e+02	-2.338499e-03	1.698704e+00	
5.052257e-01	5.159220e-01	2.086643e+02	9.707754e+03	-1.438744e+01	6.282489e+07	8.196477e+05	6.525884e+02	-2.768049e-03	1.698444e+00	
5.111990e-01	5.156209e-01	2.084952e+02	9.703342e+03	-1.747990e+01	6.277348e+07	8.195208e+05	6.525779e+02	-3.329911e-03	1.698092e+00	
5.186303e-01	5.281621e-01	2.086075e+02	9.706259e+03	-1.544620e+01	6.280762e+07	8.196051e+05	6.525849e+02	-2.956681e-03	1.698324e+00	
5.176595e-01	5.150544e-01	2.082812e+02	9.697708e+03	-2.142411e+01	6.270840e+07	8.193599e+05	6.525645e+02	-4.042068e-03	1.697631e+00	
5.259429e-01	5.272708e-01	2.083762e+02	9.700234e+03	-1.959612e+01	6.273728e+07	8.194313e+05	6.525704e+02	-3.725839e-03	1.697841e+00	
5.240939e-01	5.143640e-01	2.080332e+02	9.691150e+03	-2.598211e+01	6.263300e+07	8.191732e+05	6.525490e+02	-4.868400e-03	1.697080e+00	
5.337303e-01	5.252496e-01	2.080539e+02	9.691828e+03	-2.537659e+01	6.263931e+07	8.191888e+05	6.525503e+02	-4.799212e-03	1.697149e+00	
5.299111e-01	5.137134e-01	2.077631e+02	9.684058e+03	-3.085849e+01	6.255086e+07	8.189695e+05	6.525321e+02	-5.770139e-03	1.696474e+00	
5.462166e-01	5.322871e-01	2.077550e+02	9.684246e+03	-3.066439e+01	6.254844e+07	8.189635e+05	6.525316e+02	-5.796921e-03	1.696526e+00	
5.396870e-01	5.131909e-01	2.071771e+02	9.668686e+03	-4.138037e+01	6.237271e+07	8.185263e+05	6.524954e+02	-7.731906e-03	1.695114e+00	
5.350009e-01	5.134054e-01	2.074783e+02	9.676581e+03	-3.598155e+01	6.246428e+07	8.187543e+05	6.525143e+02	-6.722614e-03	1.695821e+00	
5.442234e-01	5.129556e-01	2.068324e+02	9.659573e+03	-4.765095e+01	6.226788e+07	8.182647e+05	6.524738e+02	-8.889983e-03	1.694271e+00	
5.489010e-01	5.125229e-01	2.064487e+02	9.649404e+03	-5.464636e+01	6.215123e+07	8.179728e+05	6.524497e+02	-1.018201e-02	1.693300e+00	
5.535552e-01	5.321383e-01	2.073543e+02	9.673750e+03	-3.793539e+01	6.242659e+07	8.186605e+05	6.525065e+02	-7.137882e-03	1.695605e+00	
5.619305e-01	5.108555e-01	2.049447e+02	9.609465e+03	-8.217852e+01	6.169393e+07	8.168207e+05	6.523548e+02	-1.528200e-02	1.689211e+00	
5.533351e-01	5.177831e-01	2.064822e+02	9.650480e+03	-5.388959e+01	6.216143e+07	8.179984e+05	6.524518e+02	-1.006885e-02	1.693419e+00	
5.570963e-01	5.118113e-01	2.056094e+02	9.627179e+03	-6.993840e+01	6.189604e+07	8.173315e+05	6.523968e+02	-1.302103e-02	1.691082e+00	
5.527930e-01	5.111131e-01	2.059498e+02	9.636153e+03	-6.375607e+01	6.199953e+07	8.175921e+05	6.524183e+02	-1.186759e-02	1.691991e+00	
4.182310e-01	5.420383e-01	2.094906e+02	9.728799e+03	-1.214187e-01	6.307611e+07	8.202660e+05	6.526399e+02	-3.107961e-05	1.699988e+00	
4.108708e-01	5.410083e-01	2.094936e+02	9.728867e+03	-8.188529e-02	6.307703e+07	8.202682e+05	6.526400e+02	-2.115230e-05	1.699992e+00	
4.077962e-01	5.322397e-01	2.094930e+02	9.728851e+03	-9.247355e-02	6.307685e+07	8.202678e+05	6.526400e+02	-2.300563e-05	1.699990e+00	
4.096625e-01	5.245919e-01	2.094904e+02	9.728784e+03	-1.356700e-01	6.307604e+07	8.202658e+05	6.526398e+02	-3.187145e-05	1.699986e+00	
4.132972e-01	5.225395e-01	2.094872e+02	9.728706e+03	-1.850362e-01	6.307508e+07	8.202634e+05	6.526396e+02	-4.231970e-05	1.699981e+00	
4.172283e-01	5.226420e-01	2.094839e+02	9.728627e+03	-2.333110e-01	6.307409e+07	8.202610e+05	6.526394e+02	-5.302890e-05	1.699976e+00	
4.052897e-01	5.250804e-01	2.094926e+02	9.728838e+03	-1.032616e-01	6.307673e+07	8.202675e+05	6.526400e+02	-2.439860e-05	1.699989e+00	
3.952717e-01	5.295446e-01	2.094962e+02	9.728923e+03	-5.180835e-02	6.307781e+07	8.202702e+05	6.526402e+02	-1.259182e-05	1.699995e+00	
4.010885e-01	5.274863e-01	2.094945e+02	9.728884e+03	-7.471746e-02	6.307731e+07	8.202689e+05	6.526401e+02	-1.804111e-05	1.699992e+00	
4.218740e-01	5.220199e-01	2.094789e+02	9.728504e+03	-3.111941e-01	6.307256e+07	8.202573e+05	6.526391e+02	-6.964315e-05	1.699967e+00	
4.298008e-01	5.355125e-01	2.094792e+02	9.728531e+03	-2.822020e-01	6.307266e+07	8.202575e+05	6.526391e+02	-6.857319e-05	1.699971e+00	
4.262418e-01	5.207824e-01	2.094726e+02	9.728347e+03	-4.120152e-01	6.307064e+07	8.202525e+05	6.526387e+02	-9.056361e-05	1.699957e+00	
4.300606e-01	5.192753e-01	2.094643e+02	9.728142e+03	-5.444653e-01	6.306811e+07	8.202463e+05	6.526382e+02	-1.180080e-04	1.699943e+00	
4.376434e-01	5.359298e-01	2.094692e+02	9.728294e+03	-4.303462e-01	6.306961e+07	8.202500e+05	6.526385e+02	-1.016997e-04	1.699956e+00	
4.338569e-01	5.184527e-01	2.094549e+02	9.727910e+03	-6.932782e-01	6.306525e+07	8.202393e+05	6.526376e+02	-1.490867e-04	1.699928e+00	
4.378531e-01	5.177912e-01	2.094437e+02	9.727636e+03	-8.715019e-01	6.306187e+07	8.202310e+05	6.526369e+02	-1.858759e-04	1.699909e+00	
4.420314e-01	5.172088e-01	2.094298e+02	9.727288e+03	-1.100387e+00	6.305762e+07	8.202206e+05	6.526361e+02	-2.320796e-04	1.699886e+00	
4.455985e-01	5.360849e-01	2.094550e+02	9.727950e+03	-6.522582e-01	6.306529e+07	8.202394e+05	6.526376e+02	-1.487047e-04	1.699934e+00	
4.535737e-01	5.364795e-01	2.094370e+02	9.727510e+03	-9.392480e-01	6.305981e+07	8.202260e+05	6.526365e+02	-2.082292e-04	1.699905e+00	
4.510046e-01	5.160056e-01	2.093918e+02	9.726333e+03	-1.743485e+00	6.304608e+07	8.201922e+05	6.526337e+02	-3.575143e-04	1.699819e+00	
4.464091e-01	5.166333e-01	2.094130e+02	9.726869e+03	-1.380308e+00	6.305251e+07	8.202080e+05	6.526350e+02	-2.875609e-04	1.699857e+00	
4.554536e-01	5.149526e-01	2.093659e+02	9.725676e+03	-2.188439e+00	6.303821e+07	8.201729e+05	6.526321e+02	-4.430694e-04	1.699773e+00	
4.613018e-01	5.369686e-01	2.094141e+02	9.726950e+03	-1.302362e+00	6.305285e+07	8.202088e+05	6.526351e+02	-2.839756e-04	1.699868e+00	
4.594701e-01	5.137342e-01	2.093327e+02	9.724841e+03	-2.750622e+00	6.302811e+07	8.201481e+05	6.526300e+02	-5.529195e-04	1.699714e+00	
4.634832e-01	5.133385e-01	2.092982e+02	9.723969e+03	-3.341601e+00	6.301763e+07	8.201223e+05	6.526279e+02	-6.669215e-04	1.699653e+00	
4.687863e-01	5.370699e-01	2.093827e+02	9.726184e+03	-1.801596e+00	6.304331e+07	8.201854e+05	6.526331e+02	-3.876413e-04	1.699817e+00	
4.678953e-01	5.132566e-01	2.092604e+02	9.723002e+03	-3.999659e+00	6.300614e+07	8.200941e+05	6.526255e+02	-7.920003e-04	1.699583e+00	
4.725784e-01	5.129627e-01	2.092119e+02	9.721763e+03	-4.837692e+00	6.299139e+07	8.200578e+05	6.526225e+02	-9.524949e-04	1.699493e+00	
4.762829e-01	5.366343e-01	2.093377e+02	9.725070e+03	-2.537338e+00	6.302962e+07	8.201518e+05	6.526303e+02	-5.365436e-04	1.699741e+00	
4.772417e-01	5.125246e-01	2.091524e+02	9.720246e+03	-5.858590e+00	6.297330e+07	8.200133e+05	6.526188e+02	-1.149468e-03	1.699383e+00	
4.818702e-01	5.120964e-01	2.090824e+02	9.718460e+03	-7.060089e+00	6.295201e+07	8.199610e+05	6.526145e+02	-1.381313e-03	1.699252e+00	
4.840229e-01	5.360498e-01	2.092771e+02	9.723555e+03	-3.550697e+00	6.301121e+07	8.201066e+05	6.526266e+02	-7.367973e-04	1.699636e+00	
4.865619e-01	5.117173e-01	2.090003e+02	9.716366e+03	-8.473335e+00	6.292706e+07	8.198995e+05	6.526094e+02	-1.653210e-03	1.699097e+00	
4.918869e-01	5.357830e-01	2.092005e+02	9.721627e+03	-4.855394e+00	6.298791e+07	8.200493e+05	6.526218e+02	-9.904273e-04	1.699499e+00	
4.965458e-01	5.108710e-01	2.087828e+02	9.710782e+03	-1.227359e+01	6.286091e+07	8.197365e+05	6.525958e+02	-2.374697e-03	1.698675e+00	
4.997146e-01	5.354686e-01	2.090991e+02	9.719047e+03	-6.621536e+00	6.295709e+07	8.199734e+05	6.526155e+02	-1.326089e-03	1.699312e+00	
4.914342e-01	5.113512e-01	2.089026e+02	9.713862e+03	-1.017595e+01	6.289736e+07	8.198264e+05	6.526033e+02	-1.977056e-03	1.698910e+00	
5.075478e-01	5.351717e-01	2.089756e+02	9.715879e+03	-8.807699e+00	6.291954e+07	8.198810e+05	6.526078e+02	-1.735219e-03	1.699076e+00	
5.019113e-01	5.102348e-01	2.086319e+02	9.706902e+03	-1.492662e+01	6.281503e+07	8.196234e+05	6.525864e+02	-2.875684e-03	1.698375e+00	
5.076459e-01	5.094820e-01	2.084440e+02	9.702022e+03	-1.830848e+01	6.275790e+07	8.194823e+05	6.525747e+02	-3.500251e-03	1.697988e+00	
5.152746e-01	5.349577e-01	2.088248e+02	9.711986e+03	-1.150133e+01	6.287371e+07	8.197681e+05	6.525984e+02	-2.235116e-03	1.698779e+00	
5.138338e-01	5.086125e-01	2.082149e+02	9.696000e+03	-2.251302e+01	6.268824e+07	8.193100e+05	6.525604e+02	-4.262892e-03	1.697493e+00	
5.228774e-01	5.344025e-01	2.086354e+02	9.707079e+03	-1.489220e+01	6.281611e+07	8.196260e+05	6.525866e+02	-2.863988e-03	1.698398e+00	
5.203343e-01	5.076345e-01	2.079353e+02	9.688594e+03	-2.767455e+01	6.260324e+07	8.190995e+05	6.525429e+02	-5.194905e-03	1.696864e+00	
5.305667e-01	5.334748e-01	2.083927e+02	9.700788e+03	-1.923276e+01	6.274233e+07	8.194438e+05	6.525715e+02	-3.670715e-03	1.697897e+00	
5.384397e-01	5.326159e-01	2.080973e+02	9.693131e+03	-2.451440e+01	6.265250e+07	8.192215e+05	6.525530e+02	-4.654650e-03	1.697273e+00	
5.322345e-01	5.074701e-01	2.073498e+02	9.673097e+03	-3.837071e+01	6.242519e+07	8.186571e+05	6.525063e+02	-7.153087e-03	1.695502e+00	
5.266468e-01	5.072669e-01	2.076469e+02	9.680948e+03	-3.297048e+01	6.251554e+07	8.188818e+05	6.525249e+02	-6.158441e-03	1.696199e+00	
5.503238e-01	5.389350e-01	2.078308e+02	9.686250e+03	-2.939004e+01	6.257147e+07	8.190206e+05	6.525364e+02	-5.543975e-03	1.696700e+00	
5.416423e-01	5.073332e-01	2.066642e+02	9.654933e+03	-5.082670e+01	6.221675e+07	8.181369e+05	6.524632e+02	-9.455788e-03	1.693817e+00	
5.371236e-01	5.074847e-01	2.070217e+02	9.664408e+03	-4.432989e+01	6.232544e+07	8.184085e+05	6.524857e+02	-8.253618e-03	1.694707e+00	
5.460130e-01	5.070190e-01	2.062687e+02	9.644414e+03	-5.805297e+01	6.209647e+07	8.178356e+05	6.524384e+02	-1.078955e-02	1.692797e+00	
5.575476e-01	5.384225e-01	2.074415e+02	9.676124e+03	-3.633627e+01	6.245311e+07	8.187265e+05	6.525120e+02	-6.845752e-03	1.695824e+00	
5.610332e-01	5.183673e-01	2.058111e+02	9.632787e+03	-6.609588e+01	6.195739e+07	8.174860e+05	6.524096e+02	-1.233690e-02	1.691674e+00	
5.568081e-01	5.253606e-01	2.067219e+02	9.657021e+03	-4.939985e+01	6.223433e+07	8.181808e+05	6.524669e+02	-9.261347e-03	1.694060e+00	
5.502397e-01	5.064700e-01	2.058170e+02	9.632441e+03	-6.625426e+01	6.195914e+07	8.174905e+05	6.524099e+02	-1.231730e-02	1.691602e+00	
5.590898e-01	5.055315e-01	2.047619e+02	9.604356e+03	-8.558051e+01	6.163834e+07	8.166798e+05	6.523433e+02	-1.590585e-02	1.688640e+00	
5.544744e-01	5.060379e-01	2.053210e+02	9.619236e+03	-7.533398e+01	6.180833e+07	8.171102e+05	6.523786e+02	-1.400070e-02	1.690235e+00	
5.647115e-01	5.043919e-01	2.039828e+02	9.583372e+03	-1.001480e+02	6.140145e+07	8.160770e+05	6.522939e+02	-1.857431e-02	1.686276e+00	
4.140986e-01	5.484519e-01	2.094938e+02	9.728872e+03	-7.906786e-02	6.307708e+07	8.202683e+05	6.526400e+02	-2.058862e-05	1.699992e+00	
4.101184e-01	5.184586e-01	2.094875e+02	9.728712e+03	-1.852672e-01	6.307518e+07	8.202637e+05	6.526397e+02	-4.120780e-05	1.699981e+00	
4.047186e-01	5.394457e-01	2.094952e+02	9.728902e+03	-6.231782e-02	6.307750e+07	8.202694e+05	6.526401e+02	-1.600430e-05	1.699994e+00	
4.141240e-01	5.174906e-01	2.094836e+02	9.728616e+03	-2.460311e-01	6.307399e+07	8.202608e+05	6.526394e+02	-5.414938e-05	1.699974e+00	
4.059784e-01	5.195900e-01	2.094906e+02	9.728786e+03	-1.384433e-01	6.307610e+07	8.202660e+05	6.526398e+02	-3.115308e-05	1.699986e+00	
4.003671e-01	5.345590e-01	2.094956e+02	9.728911e+03	-5.732114e-02	6.307764e+07	8.202697e+05	6.526402e+02	-1.445068e-05	1.699994e+00	
4.183030e-01	5.167669e-01	2.094788e+02	9.728499e+03	-3.209340e-01	6.307254e+07	8.202572e+05	6.526391e+02	-6.993847e-05	1.699967e+00	
4.259138e-01	5.424229e-01	2.094860e+02	9.728692e+03	-1.853656e-01	6.307471e+07	8.202625e+05	6.526396e+02	-4.633776e-05	1.699982e+00	
3.957368e-01	5.219826e-01	2.094951e+02	9.728895e+03	-7.058371e-02	6.307747e+07	8.202693e+05	6.526401e+02	-1.633805e-05	1.699993e+00	
3.912453e-01	5.253399e-01	2.094965e+02	9.728930e+03	-4.903544e-02	6.307791e+07	8.202704e+05	6.526402e+02	-1.156715e-05	1.699995e+00	
4.014501e-01	5.207840e-01	2.094931e+02	9.728847e+03	-1.006596e-01	6.307686e+07	8.202678e+05	6.526400e+02	-2.294405e-05	1.699990e+00	
4.225761e-01	5.158213e-01	2.094726e+02	9.728344e+03	-4.210886e-01	6.307063e+07	8.202525e+05	6.526387e+02	-9.061444e-05	1.699956e+00	
4.267111e-01	5.146917e-01	2.094645e+02	9.728145e+03	-5.503555e-01	6.306819e+07	8.202465e+05	6.526382e+02	-1.172058e-04	1.699943e+00	
4.338241e-01	5.428944e-01	2.094792e+02	9.728536e+03	-2.823438e-01	6.307266e+07	8.202575e+05	6.526391e+02	-6.861463e-05	1.699972e+00	
4.307352e-01	5.136405e-01	2.094545e+02	9.727897e+03	-7.110389e-01	6.306514e+07	8.202390e+05	6.526376e+02	-1.503555e-04	1.699926e+00	
4.348009e-01	5.127828e-01	2.094424e+02	9.727598e+03	-9.058515e-01	6.306146e+07	8.202300e+05	6.526369e+02	-1.902951e-04	1.699906e+00	
4.417237e-01	5.431554e-01	2.094696e+02	9.728307e+03	-4.283301e-01	6.306972e+07	8.202503e+05	6.526385e+02	-1.005787e-04	1.699958e+00	
4.389789e-01	5.120256e-01	2.094277e+02	9.727232e+03	-1.146185e+00	6.305698e+07	8.202190e+05	6.526359e+02	-2.389641e-04	1.699881e+00	
4.496279e-01	5.433384e-01	2.094565e+02	9.727993e+03	-6.325644e-01	6.306573e+07	8.202405e+05	6.526377e+02	-1.438776e-04	1.699938e+00	
4.432818e-01	5.113117e-01	2.094097e+02	9.726781e+03	-1.445725e+00	6.305151e+07	8.202056e+05	6.526348e+02	-2.985143e-04	1.699850e+00	
4.476997e-01	5.105888e-01	2.093876e+02	9.726227e+03	-1.818748e+00	6.304481e+07	8.201891e+05	6.526335e+02	-3.713006e-04	1.699812e+00	
4.521425e-01	5.097726e-01	2.093606e+02	9.725544e+03	-2.282281e+00	6.303660e+07	8.201690e+05	6.526318e+02	-4.605676e-04	1.699764e+00	
4.574652e-01	5.435223e-01	2.094392e+02	9.727576e+03	-9.032226e-01	6.306050e+07	8.202276e+05	6.526367e+02	-2.007922e-04	1.699911e+00	
4.564836e-01	5.088768e-01	2.093275e+02	9.724707e+03	-2.847432e+00	6.302654e+07	8.201442e+05	6.526297e+02	-5.700395e-04	1.699705e+00	
4.607563e-01	5.081450e-01	2.092885e+02	9.723719e+03	-3.513913e+00	6.301466e+07	8.201150e+05	6.526273e+02	-6.992373e-04	1.699635e+00	
4.651865e-01	5.435943e-01	2.094160e+02	9.727014e+03	-1.269858e+00	6.305344e+07	8.202103e+05	6.526352e+02	-2.775484e-04	1.699874e+00	
4.651278e-01	5.076741e-01	2.092443e+02	9.722594e+03	-4.280081e+00	6.300123e+07	8.200820e+05	6.526245e+02	-8.454207e-04	1.699554e+00	
4.696644e-01	5.072781e-01	2.091928e+02	9.721274e+03	-5.181648e+00	6.298556e+07	8.200435e+05	6.526213e+02	-1.015893e-03	1.699458e+00	
4.728495e-01	5.434325e-01	2.093838e+02	9.726229e+03	-1.788273e+00	6.304364e+07	8.201862e+05	6.526332e+02	-3.840815e-04	1.699822e+00	
4.742903e-01	5.068422e-01	2.091310e+02	9.719688e+03	-6.259575e+00	6.296679e+07	8.199973e+05	6.526175e+02	-1.220346e-03	1.699341e+00	
4.805590e-01	5.430887e-01	2.093398e+02	9.725144e+03	-2.513731e+00	6.303027e+07	8.201534e+05	6.526305e+02	-5.294790e-04	1.699749e+00	
4.836225e-01	5.059594e-01	2.089715e+02	9.715588e+03	-9.030383e+00	6.291830e+07	8.198780e+05	6.526076e+02	-1.748678e-03	1.699035e+00	
4.883465e-01	5.427320e-01	2.092823e+02	9.723713e+03	-3.479924e+00	6.301279e+07	8.201104e+05	6.526269e+02	-7.196500e-04	1.699650e+00	
4.789379e-01	5.063906e-01	2.090577e+02	9.717804e+03	-7.533950e+00	6.294450e+07	8.199425e+05	6.526129e+02	-1.463165e-03	1.699201e+00	
4.961636e-01	5.424051e-01	2.092078e+02	9.721841e+03	-4.755595e+00	6.299014e+07	8.200547e+05	6.526223e+02	-9.662079e-04	1.699518e+00	
4.933459e-01	5.050580e-01	2.087481e+02	9.709823e+03	-1.293545e+01	6.285036e+07	8.197105e+05	6.525936e+02	-2.489860e-03	1.698595e+00	
4.884040e-01	5.055372e-01	2.088699e+02	9.712971e+03	-1.080070e+01	6.288741e+07	8.198019e+05	6.526012e+02	-2.085528e-03	1.698837e+00	
5.039759e-01	5.420645e-01	2.091127e+02	9.719426e+03	-6.415673e+00	6.296123e+07	8.199836e+05	6.526163e+02	-1.281020e-03	1.699343e+00	
5.039533e-01	5.034975e-01	2.084074e+02	9.700980e+03	-1.896850e+01	6.274679e+07	8.194548e+05	6.525724e+02	-3.621782e-03	1.697895e+00	
4.985026e-01	5.044211e-01	2.085979e+02	9.705936e+03	-1.557661e+01	6.280472e+07	8.195979e+05	6.525843e+02	-2.988398e-03	1.698291e+00	
5.117618e-01	5.417104e-01	2.089944e+02	9.716399e+03	-8.503239e+00	6.292525e+07	8.198951e+05	6.526090e+02	-1.672983e-03	1.699119e+00	
5.098403e-01	5.021179e-01	2.081585e+02	9.694419e+03	-2.350584e+01	6.267110e+07	8.192676e+05	6.525569e+02	-4.450624e-03	1.697352e+00	
5.195033e-01	5.412656e-01	2.088458e+02	9.712576e+03	-1.114784e+01	6.288007e+07	8.197838e+05	6.525997e+02	-2.165668e-03	1.698829e+00	
5.272402e-01	5.406524e-01	2.086584e+02	9.707732e+03	-1.450813e+01	6.282310e+07	8.196433e+05	6.525881e+02	-2.787595e-03	1.698454e+00	
5.162101e-01	5.007984e-01	2.078676e+02	9.686682e+03	-2.889873e+01	6.258265e+07	8.190484e+05	6.525387e+02	-5.420857e-03	1.696689e+00	
5.350168e-01	5.399632e-01	2.084278e+02	9.701752e+03	-1.866153e+01	6.275300e+07	8.194701e+05	6.525737e+02	-3.554012e-03	1.697980e+00	
5.232256e-01	4.986816e-01	2.074633e+02	9.675809e+03	-3.649955e+01	6.245969e+07	8.187430e+05	6.525134e+02	-6.772884e-03	1.695720e+00	
5.295902e-01	5.006896e-01	2.071584e+02	9.667711e+03	-4.211543e+01	6.236699e+07	8.185121e+05	6.524943e+02	-7.794754e-03	1.694985e+00	
5.427668e-01	5.393828e-01	2.081542e+02	9.694653e+03	-2.358550e+01	6.266979e+07	8.192643e+05	6.525566e+02	-4.465089e-03	1.697403e+00	
5.391410e-01	5.012784e-01	2.064374e+02	9.648501e+03	-5.531519e+01	6.214776e+07	8.179642e+05	6.524490e+02	-1.022013e-02	1.693166e+00	
5.346166e-01	5.012290e-01	2.068109e+02	9.658454e+03	-4.848797e+01	6.226134e+07	8.182485e+05	6.524725e+02	-8.961983e-03	1.694121e+00	
5.434260e-01	5.010975e-01	2.060319e+02	9.637709e+03	-6.270586e+01	6.202448e+07	8.176549e+05	6.524235e+02	-1.158957e-02	1.692100e+00	
5.545414e-01	5.451373e-01	2.078848e+02	9.687666e+03	-2.843456e+01	6.258790e+07	8.190614e+05	6.525398e+02	-5.363529e-03	1.696821e+00	
5.617648e-01	5.444296e-01	2.074913e+02	9.677486e+03	-3.538547e+01	6.246827e+07	8.187642e+05	6.525151e+02	-6.678831e-03	1.695949e+00	
5.625251e-01	5.258248e-01	2.062785e+02	9.645392e+03	-5.741575e+01	6.209950e+07	8.178431e+05	6.524390e+02	-1.075622e-02	1.692948e+00	
5.603055e-01	5.317482e-01	2.068964e+02	9.661773e+03	-4.616706e+01	6.228737e+07	8.183134e+05	6.524778e+02	-8.674624e-03	1.694518e+00	
5.476038e-01	5.007695e-01	2.055839e+02	9.625790e+03	-7.085443e+01	6.188826e+07	8.173120e+05	6.523952e+02	-1.310743e-02	1.690888e+00	
5.677429e-01	5.131558e-01	2.045783e+02	9.599687e+03	-8.898424e+01	6.158255e+07	8.165382e+05	6.523316e+02	-1.653288e-02	1.688141e+00	
5.517738e-01	5.003674e-01	2.050871e+02	9.612573e+03	-7.989973e+01	6.173720e+07	8.169304e+05	6.523638e+02	-1.479669e-02	1.689498e+00	
5.560572e-01	4.998810e-01	2.045364e+02	9.597831e+03	-9.002728e+01	6.156976e+07	8.165057e+05	6.523290e+02	-1.667654e-02	1.687888e+00	
5.716113e-01	5.051082e-01	2.031686e+02	9.561401e+03	-1.153635e+02	6.115389e+07	8.154430e+05	6.522421e+02	-2.138058e-02	1.683679e+00	
5.640889e-01	4.975004e-01	2.031669e+02	9.560795e+03	-1.156529e+02	6.115334e+07	8.154417e+05	6.522420e+02	-2.138667e-02	1.683576e+00	
5.604657e-01	4.990807e-01	2.039090e+02	9.580977e+03	-1.016565e+02	6.137899e+07	8.160197e+05	6.522892e+02	-1.882801e-02	1.685975e+00	
5.681686e-01	4.981427e-01	2.027163e+02	9.548543e+03	-1.242469e+02	6.101635e+07	8.150891e+05	6.522132e+02	-2.294743e-02	1.682071e+00	
5.731284e-01	4.967354e-01	2.017703e+02	9.522656e+03	-1.422394e+02	6.072871e+07	8.143445e+05	6.521527e+02	-2.624368e-02	1.678765e+00	
4.099272e-01	5.551270e-01	2.094958e+02	9.728918e+03	-5.292600e-02	6.307769e+07	8.202699e+05	6.526402e+02	-1.390068e-05	1.699995e+00	
4.053417e-01	5.472014e-01	2.094960e+02	9.728921e+03	-5.072942e-02	6.307774e+07	8.202700e+05	6.526402e+02	-1.336709e-05	1.699995e+00	
4.106832e-01	5.123470e-01	2.094836e+02	9.728614e+03	-2.520359e-01	6.307398e+07	8.202608e+05	6.526394e+02	-5.420981e-05	1.699974e+00	
4.065574e-01	5.133926e-01	2.094876e+02	9.728712e+03	-1.893141e-01	6.307519e+07	8.202637e+05	6.526397e+02	-4.105035e-05	1.699981e+00	
3.988764e-01	5.416598e-01	2.094967e+02	9.728938e+03	-4.168258e-02	6.307797e+07	8.202706e+05	6.526402e+02	-1.084079e-05	1.699996e+00	
4.148018e-01	5.113815e-01	2.094785e+02	9.728490e+03	-3.322672e-01	6.307245e+07	8.202570e+05	6.526391e+02	-7.088567e-05	1.699966e+00	
4.220392e-01	5.491188e-01	2.094906e+02	9.728800e+03	-1.222058e-01	6.307611e+07	8.202660e+05	6.526399e+02	-3.113639e-05	1.699988e+00	
3.939065e-01	5.363474e-01	2.094971e+02	9.728945e+03	-3.823431e-02	6.307808e+07	8.202708e+05	6.526403e+02	-9.632718e-06	1.699996e+00	
4.022742e-01	5.144627e-01	2.094907e+02	9.728788e+03	-1.404236e-01	6.307614e+07	8.202661e+05	6.526399e+02	-3.075799e-05	1.699986e+00	
3.891619e-01	5.190138e-01	2.094962e+02	9.728922e+03	-5.542178e-02	6.307781e+07	8.202701e+05	6.526402e+02	-1.261608e-05	1.699994e+00	
3.977060e-01	5.154096e-01	2.094931e+02	9.728846e+03	-1.031223e-01	6.307687e+07	8.202678e+05	6.526400e+02	-2.287269e-05	1.699990e+00	
3.868105e-01	5.247632e-01	2.094972e+02	9.728947e+03	-3.938894e-02	6.307813e+07	8.202709e+05	6.526403e+02	-9.188617e-06	1.699996e+00	
3.933857e-01	5.156504e-01	2.094947e+02	9.728885e+03	-7.872430e-02	6.307735e+07	8.202690e+05	6.526401e+02	-1.759108e-05	1.699992e+00	
4.231725e-01	5.094110e-01	2.094640e+02	9.728130e+03	-5.674905e-01	6.306803e+07	8.202461e+05	6.526382e+02	-1.189310e-04	1.699942e+00	
4.299191e-01	5.495276e-01	2.094859e+02	9.728694e+03	-1.874379e-01	6.307470e+07	8.202625e+05	6.526396e+02	-4.641921e-05	1.699982e+00	
4.189807e-01	5.104286e-01	2.094722e+02	9.728332e+03	-4.350845e-01	6.307051e+07	8.202522e+05	6.526387e+02	-9.198220e-05	1.699955e+00	
4.273379e-01	5.083826e-01	2.094537e+02	9.727874e+03	-7.351069e-01	6.306489e+07	8.202384e+05	6.526376e+02	-1.529949e-04	1.699924e+00	
4.378227e-01	5.497998e-01	2.094793e+02	9.728540e+03	-2.850099e-01	6.307268e+07	8.202576e+05	6.526392e+02	-6.834736e-05	1.699973e+00	
4.315092e-01	5.074248e-01	2.094409e+02	9.727556e+03	-9.436883e-01	6.306101e+07	8.202289e+05	6.526368e+02	-1.952552e-04	1.699903e+00	
4.357354e-01	5.065527e-01	2.094252e+02	9.727165e+03	-1.201648e+00	6.305624e+07	8.202172e+05	6.526358e+02	-2.471013e-04	1.699876e+00	
4.457229e-01	5.499469e-01	2.094700e+02	9.728320e+03	-4.264130e-01	6.306986e+07	8.202506e+05	6.526386e+02	-9.900906e-05	1.699959e+00	
4.400396e-01	5.057383e-01	2.094060e+02	9.726683e+03	-1.521266e+00	6.305040e+07	8.202028e+05	6.526346e+02	-3.105710e-04	1.699843e+00	
4.444213e-01	5.049520e-01	2.093826e+02	9.726093e+03	-1.917328e+00	6.304327e+07	8.201853e+05	6.526331e+02	-3.881056e-04	1.699802e+00	
4.535972e-01	5.500200e-01	2.094574e+02	9.728019e+03	-6.222658e-01	6.306603e+07	8.202412e+05	6.526378e+02	-1.406535e-04	1.699940e+00	
4.488543e-01	5.041631e-01	2.093540e+02	9.725369e+03	-2.406084e+00	6.303458e+07	8.201640e+05	6.526314e+02	-4.826032e-04	1.699751e+00	
4.532924e-01	5.033640e-01	2.093193e+02	9.724488e+03	-3.003099e+00	6.302402e+07	8.201380e+05	6.526292e+02	-5.974137e-04	1.699688e+00	
4.614219e-01	5.500245e-01	2.094404e+02	9.727610e+03	-8.896155e-01	6.306085e+07	8.202285e+05	6.526367e+02	-1.969648e-04	1.699914e+00	