TITLE = "Visualization of the solution"
VARIABLES = "x","y","Density","Momentum_x","Momentum_y","Energy","Pressure","Temperature","Pressure_Coefficient","Mach"
ZONE NODES= 13143, ELEMENTS= 25846, DATAPACKING=POINT, ZONETYPE=FEQUADRILATERAL
9.963582e-01	5.473611e-02	1.377012e+02	7.431450e+03	-1.592872e+03	4.125925e+07	7.371310e+05	6.474583e+02	-3.680418e-01	1.287516e+00	
9.956316e-01	9.956211e-01	2.063855e+02	9.639295e+03	-5.933292e+00	6.213161e+07	8.179246e+05	6.524457e+02	-1.039576e-02	1.691630e+00	
4.376141e-03	9.956289e-01	2.095000e+02	9.729012e+03	1.972839e-11	6.307897e+07	8.202730e+05	6.526404e+02	-7.729972e-15	1.700000e+00	
4.328098e-01	5.388592e-01	2.093821e+02	9.726150e+03	-1.857574e+00	6.304314e+07	8.201850e+05	6.526331e+02	-3.894749e-04	1.699813e+00	
4.336936e-01	5.339289e-01	2.093579e+02	9.725548e+03	-2.262419e+00	6.303578e+07	8.201669e+05	6.526316e+02	-4.695873e-04	1.699772e+00	
4.281052e-01	5.351001e-01	2.093902e+02	9.726337e+03	-1.743712e+00	6.304560e+07	8.201911e+05	6.526336e+02	-3.627449e-04	1.699824e+00	
4.226983e-01	5.291480e-01	2.093926e+02	9.726396e+03	-1.717261e+00	6.304632e+07	8.201928e+05	6.526338e+02	-3.548777e-04	1.699828e+00	
4.305102e-01	5.287513e-01	2.093565e+02	9.725511e+03	-2.295836e+00	6.303535e+07	8.201659e+05	6.526315e+02	-4.741882e-04	1.699769e+00	
4.376095e-01	5.293800e-01	2.093169e+02	9.724543e+03	-2.935998e+00	6.302330e+07	8.201363e+05	6.526291e+02	-6.053120e-04	1.699704e+00	
4.397826e-01	5.372443e-01	2.093373e+02	9.725044e+03	-2.606614e+00	6.302952e+07	8.201515e+05	6.526303e+02	-5.376683e-04	1.699738e+00	
4.454389e-01	5.303355e-01	2.092715e+02	9.723412e+03	-3.712619e+00	6.300950e+07	8.201023e+05	6.526262e+02	-7.554231e-04	1.699626e+00	
4.491138e-01	5.378447e-01	2.092870e+02	9.723787e+03	-3.473003e+00	6.301422e+07	8.201139e+05	6.526272e+02	-7.041227e-04	1.699650e+00	
4.579322e-01	5.380030e-01	2.092225e+02	9.722166e+03	-4.594599e+00	6.299462e+07	8.200658e+05	6.526232e+02	-9.174141e-04	1.699536e+00	
4.539695e-01	5.306541e-01	2.092058e+02	9.721756e+03	-4.858983e+00	6.298953e+07	8.200532e+05	6.526221e+02	-9.728016e-04	1.699508e+00	
4.666285e-01	5.378961e-01	2.091410e+02	9.720094e+03	-6.040720e+00	6.296983e+07	8.200048e+05	6.526181e+02	-1.187277e-03	1.699386e+00	
4.753117e-01	5.376331e-01	2.090393e+02	9.717481e+03	-7.888260e+00	6.293891e+07	8.199287e+05	6.526118e+02	-1.524124e-03	1.699192e+00	
4.938016e-01	5.370951e-01	2.087602e+02	9.710111e+03	-1.316688e+01	6.285406e+07	8.197197e+05	6.525944e+02	-2.449441e-03	1.698615e+00	
4.841509e-01	5.373165e-01	2.089135e+02	9.714194e+03	-1.024382e+01	6.290068e+07	8.198346e+05	6.526040e+02	-1.940859e-03	1.698940e+00	
5.005984e-01	5.404934e-01	2.087007e+02	9.708491e+03	-1.429658e+01	6.283594e+07	8.196750e+05	6.525907e+02	-2.647170e-03	1.698481e+00	
5.068538e-01	5.395817e-01	2.085341e+02	9.704105e+03	-1.734141e+01	6.278530e+07	8.195500e+05	6.525803e+02	-3.200520e-03	1.698130e+00	
5.138946e-01	5.386265e-01	2.083282e+02	9.698672e+03	-2.112262e+01	6.272269e+07	8.193953e+05	6.525675e+02	-3.885474e-03	1.697685e+00	
4.271024e-01	5.429132e-01	2.094153e+02	9.726968e+03	-1.315185e+00	6.305321e+07	8.202097e+05	6.526352e+02	-2.800279e-04	1.699868e+00	
4.224004e-01	5.366993e-01	2.094153e+02	9.726953e+03	-1.338016e+00	6.305323e+07	8.202098e+05	6.526352e+02	-2.798517e-04	1.699865e+00	
4.357395e-01	5.447695e-01	2.093869e+02	9.726280e+03	-1.774486e+00	6.304460e+07	8.201886e+05	6.526334e+02	-3.736153e-04	1.699823e+00	
4.420690e-01	5.231066e-01	2.092558e+02	9.723028e+03	-3.959058e+00	6.300474e+07	8.200906e+05	6.526253e+02	-8.072622e-04	1.699599e+00	
4.443553e-01	5.451079e-01	2.093474e+02	9.725295e+03	-2.450140e+00	6.303257e+07	8.201590e+05	6.526309e+02	-5.044620e-04	1.699755e+00	
4.344257e-01	5.225676e-01	2.093084e+02	9.724329e+03	-3.082810e+00	6.302073e+07	8.201299e+05	6.526285e+02	-6.332968e-04	1.699689e+00	
4.204082e-01	5.216383e-01	2.093794e+02	9.726074e+03	-1.939542e+00	6.304230e+07	8.201830e+05	6.526329e+02	-3.986069e-04	1.699807e+00	
4.149931e-01	5.256195e-01	2.094112e+02	9.726860e+03	-1.413444e+00	6.305199e+07	8.202067e+05	6.526349e+02	-2.932705e-04	1.699860e+00	
4.269906e-01	5.221326e-01	2.093495e+02	9.725336e+03	-2.424583e+00	6.303323e+07	8.201607e+05	6.526311e+02	-4.973272e-04	1.699757e+00	
4.532353e-01	5.453468e-01	2.092988e+02	9.724081e+03	-3.286713e+00	6.301782e+07	8.201228e+05	6.526279e+02	-6.649534e-04	1.699671e+00	
4.620134e-01	5.453705e-01	2.092375e+02	9.722536e+03	-4.361033e+00	6.299916e+07	8.200769e+05	6.526241e+02	-8.679482e-04	1.699561e+00	
4.064726e-01	5.141114e-01	2.094103e+02	9.726848e+03	-1.411459e+00	6.305172e+07	8.202061e+05	6.526349e+02	-2.962319e-04	1.699860e+00	
4.501472e-01	5.234148e-01	2.091876e+02	9.721309e+03	-5.145452e+00	6.298401e+07	8.200397e+05	6.526210e+02	-1.032924e-03	1.699477e+00	
4.625567e-01	5.306002e-01	2.091205e+02	9.719583e+03	-6.370771e+00	6.296359e+07	8.199894e+05	6.526168e+02	-1.255246e-03	1.699350e+00	
4.711309e-01	5.302984e-01	2.090132e+02	9.716824e+03	-8.307636e+00	6.293098e+07	8.199092e+05	6.526102e+02	-1.610555e-03	1.699144e+00	
4.707246e-01	5.452489e-01	2.091607e+02	9.720582e+03	-5.734837e+00	6.297582e+07	8.200195e+05	6.526193e+02	-1.122037e-03	1.699420e+00	
4.794378e-01	5.450859e-01	2.090666e+02	9.718150e+03	-7.467313e+00	6.294721e+07	8.199491e+05	6.526135e+02	-1.433690e-03	1.699239e+00	
4.884024e-01	5.291621e-01	2.087192e+02	9.709109e+03	-1.381286e+01	6.284158e+07	8.196889e+05	6.525918e+02	-2.585749e-03	1.698543e+00	
4.881921e-01	5.450613e-01	2.089570e+02	9.715256e+03	-9.541405e+00	6.291389e+07	8.198671e+05	6.526067e+02	-1.796746e-03	1.699014e+00	
4.797232e-01	5.298205e-01	2.088808e+02	9.713378e+03	-1.075501e+01	6.289072e+07	8.198100e+05	6.526019e+02	-2.049482e-03	1.698881e+00	
4.964179e-01	5.456797e-01	2.088570e+02	9.712595e+03	-1.141188e+01	6.288347e+07	8.197922e+05	6.526004e+02	-2.128487e-03	1.698804e+00	
5.020121e-01	5.340524e-01	2.085252e+02	9.703906e+03	-1.753054e+01	6.278258e+07	8.195433e+05	6.525797e+02	-3.230263e-03	1.698117e+00	
5.039061e-01	5.460872e-01	2.087324e+02	9.709335e+03	-1.364848e+01	6.284558e+07	8.196988e+05	6.525927e+02	-2.542005e-03	1.698549e+00	
5.113477e-01	5.455047e-01	2.085575e+02	9.704745e+03	-1.682419e+01	6.279240e+07	8.195675e+05	6.525818e+02	-3.122913e-03	1.698184e+00	
5.190870e-01	5.442611e-01	2.083234e+02	9.698570e+03	-2.113879e+01	6.272123e+07	8.193917e+05	6.525672e+02	-3.901408e-03	1.697679e+00	
5.375857e-01	5.434876e-01	2.076989e+02	9.681812e+03	-3.282591e+01	6.253132e+07	8.189210e+05	6.525281e+02	-5.984682e-03	1.696231e+00	
5.093242e-01	5.327315e-01	2.082986e+02	9.697907e+03	-2.172137e+01	6.271368e+07	8.193730e+05	6.525656e+02	-3.984032e-03	1.697624e+00	
5.202471e-01	5.376174e-01	2.080878e+02	9.692275e+03	-2.562144e+01	6.264958e+07	8.192143e+05	6.525524e+02	-4.686399e-03	1.697147e+00	
4.219279e-01	5.506943e-01	2.094403e+02	9.727589e+03	-9.100788e-01	6.306084e+07	8.202285e+05	6.526367e+02	-1.971090e-04	1.699910e+00	
4.184692e-01	5.421582e-01	2.094359e+02	9.727469e+03	-9.911747e-01	6.305949e+07	8.202252e+05	6.526365e+02	-2.117787e-04	1.699901e+00	
4.309281e-01	5.516851e-01	2.094202e+02	9.727102e+03	-1.231627e+00	6.305470e+07	8.202134e+05	6.526355e+02	-2.638202e-04	1.699878e+00	
4.397890e-01	5.523763e-01	2.093922e+02	9.726415e+03	-1.697443e+00	6.304619e+07	8.201925e+05	6.526337e+02	-3.563492e-04	1.699833e+00	
4.385715e-01	5.162554e-01	2.092442e+02	9.722732e+03	-4.157753e+00	6.300120e+07	8.200819e+05	6.526245e+02	-8.457881e-04	1.699578e+00	
4.162350e-01	5.340084e-01	2.094261e+02	9.727222e+03	-1.165922e+00	6.305651e+07	8.202178e+05	6.526358e+02	-2.441436e-04	1.699884e+00	
4.486114e-01	5.526625e-01	2.093555e+02	9.725501e+03	-2.325328e+00	6.303505e+07	8.201651e+05	6.526315e+02	-4.775379e-04	1.699770e+00	
4.078068e-01	5.220322e-01	2.094238e+02	9.727174e+03	-1.200400e+00	6.305581e+07	8.202161e+05	6.526357e+02	-2.517665e-04	1.699881e+00	
4.145411e-01	5.163118e-01	2.093854e+02	9.726230e+03	-1.832065e+00	6.304412e+07	8.201874e+05	6.526333e+02	-3.788134e-04	1.699818e+00	
4.574099e-01	5.527575e-01	2.093094e+02	9.724344e+03	-3.126347e+00	6.302102e+07	8.201307e+05	6.526286e+02	-6.301239e-04	1.699689e+00	
4.008557e-01	5.118393e-01	2.094244e+02	9.727185e+03	-1.193332e+00	6.305600e+07	8.202166e+05	6.526357e+02	-2.496932e-04	1.699882e+00	
4.045194e-01	5.082486e-01	2.094040e+02	9.726683e+03	-1.524318e+00	6.304979e+07	8.202013e+05	6.526345e+02	-3.172350e-04	1.699848e+00	
4.232475e-01	5.150600e-01	2.093396e+02	9.725093e+03	-2.596384e+00	6.303021e+07	8.201532e+05	6.526305e+02	-5.301888e-04	1.699740e+00	
4.310812e-01	5.155426e-01	2.092978e+02	9.724056e+03	-3.281616e+00	6.301750e+07	8.201220e+05	6.526279e+02	-6.684027e-04	1.699669e+00	
4.463193e-01	5.163708e-01	2.091705e+02	9.720879e+03	-5.424036e+00	6.297879e+07	8.200268e+05	6.526199e+02	-1.089680e-03	1.699446e+00	
4.585232e-01	5.233925e-01	2.090986e+02	9.719039e+03	-6.725586e+00	6.295695e+07	8.199731e+05	6.526155e+02	-1.327582e-03	1.699311e+00	
4.669691e-01	5.230930e-01	2.089859e+02	9.716133e+03	-8.760899e+00	6.292268e+07	8.198887e+05	6.526085e+02	-1.701020e-03	1.699094e+00	
4.661417e-01	5.527185e-01	2.092516e+02	9.722882e+03	-4.147864e+00	6.300344e+07	8.200875e+05	6.526250e+02	-8.213426e-04	1.699585e+00	
4.748251e-01	5.526159e-01	2.091804e+02	9.721059e+03	-5.435669e+00	6.298180e+07	8.200342e+05	6.526206e+02	-1.056942e-03	1.699452e+00	
4.837792e-01	5.218705e-01	2.086764e+02	9.708024e+03	-1.451252e+01	6.282858e+07	8.196568e+05	6.525892e+02	-2.727678e-03	1.698460e+00	
4.753984e-01	5.225734e-01	2.088464e+02	9.712498e+03	-1.132736e+01	6.288025e+07	8.197842e+05	6.525998e+02	-2.163688e-03	1.698814e+00	
4.834634e-01	5.525442e-01	2.090958e+02	9.718857e+03	-7.002583e+00	6.295607e+07	8.199710e+05	6.526153e+02	-1.337052e-03	1.699287e+00	
4.919366e-01	5.526216e-01	2.090022e+02	9.716392e+03	-8.740077e+00	6.292762e+07	8.199009e+05	6.526095e+02	-1.647017e-03	1.699097e+00	
5.001077e-01	5.527352e-01	2.088958e+02	9.713613e+03	-1.065846e+01	6.289526e+07	8.198212e+05	6.526028e+02	-1.999864e-03	1.698884e+00	
5.080939e-01	5.525366e-01	2.087576e+02	9.710021e+03	-1.313033e+01	6.285325e+07	8.197177e+05	6.525942e+02	-2.458269e-03	1.698606e+00	
5.161672e-01	5.518806e-01	2.085731e+02	9.705200e+03	-1.647688e+01	6.279717e+07	8.195793e+05	6.525827e+02	-3.070852e-03	1.698224e+00	
5.246125e-01	5.507920e-01	2.083267e+02	9.698660e+03	-2.105673e+01	6.272223e+07	8.193941e+05	6.525674e+02	-3.890469e-03	1.697687e+00	
5.333686e-01	5.503898e-01	2.080671e+02	9.691714e+03	-2.588686e+01	6.264328e+07	8.191987e+05	6.525511e+02	-4.755435e-03	1.697098e+00	
5.417064e-01	5.505940e-01	2.077875e+02	9.684347e+03	-3.092624e+01	6.255829e+07	8.189880e+05	6.525337e+02	-5.688365e-03	1.696468e+00	
4.968216e-01	5.279391e-01	2.085168e+02	9.703746e+03	-1.762075e+01	6.278005e+07	8.195370e+05	6.525792e+02	-3.257969e-03	1.698110e+00	
5.046428e-01	5.265306e-01	2.082685e+02	9.697156e+03	-2.226177e+01	6.270455e+07	8.193504e+05	6.525637e+02	-4.084053e-03	1.697565e+00	
5.164279e-01	5.319844e-01	2.080475e+02	9.691252e+03	-2.637651e+01	6.263735e+07	8.191840e+05	6.525499e+02	-4.820534e-03	1.697064e+00	
5.281131e-01	5.409760e-01	2.079467e+02	9.688450e+03	-2.828166e+01	6.260669e+07	8.191080e+05	6.525436e+02	-5.156854e-03	1.696813e+00	
5.352494e-01	5.369780e-01	2.075187e+02	9.676929e+03	-3.639670e+01	6.247652e+07	8.187849e+05	6.525168e+02	-6.587422e-03	1.695790e+00	
5.451919e-01	5.440693e-01	2.073597e+02	9.672809e+03	-3.900961e+01	6.242818e+07	8.186646e+05	6.525069e+02	-7.119900e-03	1.695429e+00	
5.486564e-01	5.501774e-01	2.074448e+02	9.675264e+03	-3.722818e+01	6.245406e+07	8.187290e+05	6.525122e+02	-6.834841e-03	1.695667e+00	
5.525934e-01	5.446075e-01	2.069871e+02	9.662863e+03	-4.591385e+01	6.231489e+07	8.183822e+05	6.524835e+02	-8.369851e-03	1.694513e+00	
5.602553e-01	5.439894e-01	2.065262e+02	9.650526e+03	-5.448638e+01	6.217475e+07	8.180319e+05	6.524546e+02	-9.920640e-03	1.693336e+00	
4.087560e-01	5.639617e-01	2.094720e+02	9.728349e+03	-4.227209e-01	6.307046e+07	8.202521e+05	6.526387e+02	-9.247292e-05	1.699959e+00	
4.162592e-01	5.589853e-01	2.094585e+02	9.728028e+03	-6.296016e-01	6.306636e+07	8.202420e+05	6.526379e+02	-1.370269e-04	1.699939e+00	
4.131926e-01	5.487611e-01	2.094538e+02	9.727912e+03	-6.999468e-01	6.306493e+07	8.202385e+05	6.526376e+02	-1.525709e-04	1.699931e+00	
4.261533e-01	5.592648e-01	2.094431e+02	9.727657e+03	-8.740760e-01	6.306167e+07	8.202305e+05	6.526369e+02	-1.881057e-04	1.699915e+00	
4.352042e-01	5.596735e-01	2.094232e+02	9.727175e+03	-1.195946e+00	6.305561e+07	8.202156e+05	6.526357e+02	-2.538855e-04	1.699883e+00	
4.107125e-01	5.396414e-01	2.094474e+02	9.727749e+03	-8.117686e-01	6.306300e+07	8.202338e+05	6.526372e+02	-1.736296e-04	1.699919e+00	
4.440786e-01	5.599626e-01	2.093967e+02	9.726524e+03	-1.639484e+00	6.304756e+07	8.201959e+05	6.526340e+02	-3.414656e-04	1.699840e+00	
4.089599e-01	5.307825e-01	2.094377e+02	9.727511e+03	-9.755752e-01	6.306005e+07	8.202265e+05	6.526366e+02	-2.057026e-04	1.699903e+00	
4.528803e-01	5.600888e-01	2.093623e+02	9.725668e+03	-2.228065e+00	6.303713e+07	8.201702e+05	6.526319e+02	-4.549212e-04	1.699781e+00	
4.008219e-01	5.185865e-01	2.094372e+02	9.727502e+03	-9.814279e-01	6.305989e+07	8.202261e+05	6.526365e+02	-2.074263e-04	1.699903e+00	
4.106498e-01	5.082284e-01	2.093769e+02	9.726023e+03	-1.962115e+00	6.304156e+07	8.201811e+05	6.526328e+02	-4.067157e-04	1.699804e+00	
4.353901e-01	5.101731e-01	2.092349e+02	9.722485e+03	-4.338402e+00	6.299837e+07	8.200750e+05	6.526240e+02	-8.765706e-04	1.699559e+00	
4.422752e-01	5.095291e-01	2.091563e+02	9.720516e+03	-5.667897e+00	6.297448e+07	8.200162e+05	6.526191e+02	-1.136627e-03	1.699420e+00	
4.186625e-01	5.078528e-01	2.093361e+02	9.725016e+03	-2.639325e+00	6.302914e+07	8.201506e+05	6.526302e+02	-5.418337e-04	1.699736e+00	
4.544830e-01	5.162999e-01	2.090765e+02	9.718483e+03	-7.086990e+00	6.295022e+07	8.199565e+05	6.526141e+02	-1.400844e-03	1.699271e+00	
4.628022e-01	5.159991e-01	2.089577e+02	9.715419e+03	-9.231774e+00	6.291411e+07	8.198676e+05	6.526067e+02	-1.794440e-03	1.699041e+00	
4.616240e-01	5.600970e-01	2.093189e+02	9.724577e+03	-2.985960e+00	6.302393e+07	8.201378e+05	6.526292e+02	-5.984487e-04	1.699704e+00	
3.986621e-01	5.052986e-01	2.094169e+02	9.726996e+03	-1.328640e+00	6.305370e+07	8.202109e+05	6.526353e+02	-2.747279e-04	1.699869e+00	
4.703154e-01	5.600313e-01	2.092649e+02	9.723205e+03	-3.947397e+00	6.300751e+07	8.200975e+05	6.526258e+02	-7.770594e-04	1.699606e+00	
3.951667e-01	5.006591e-01	2.094162e+02	9.726982e+03	-1.343533e+00	6.305349e+07	8.202104e+05	6.526352e+02	-2.769995e-04	1.699868e+00	
4.793841e-01	5.147744e-01	2.086309e+02	9.706854e+03	-1.528761e+01	6.281474e+07	8.196226e+05	6.525863e+02	-2.878896e-03	1.698370e+00	
4.711282e-01	5.154764e-01	2.088104e+02	9.711577e+03	-1.193869e+01	6.286930e+07	8.197572e+05	6.525975e+02	-2.283131e-03	1.698744e+00	
4.789606e-01	5.599417e-01	2.091993e+02	9.721515e+03	-5.138964e+00	6.298756e+07	8.200484e+05	6.526217e+02	-9.942117e-04	1.699483e+00	
4.875334e-01	5.598748e-01	2.091221e+02	9.719504e+03	-6.554843e+00	6.296408e+07	8.199906e+05	6.526169e+02	-1.249898e-03	1.699332e+00	
4.959861e-01	5.598194e-01	2.090319e+02	9.717154e+03	-8.189793e+00	6.293667e+07	8.199232e+05	6.526113e+02	-1.548471e-03	1.699154e+00	
5.043249e-01	5.596693e-01	2.089216e+02	9.714294e+03	-1.016139e+01	6.290311e+07	8.198406e+05	6.526045e+02	-1.914298e-03	1.698937e+00	
5.126465e-01	5.593167e-01	2.087795e+02	9.710611e+03	-1.270792e+01	6.285992e+07	8.197341e+05	6.525956e+02	-2.385419e-03	1.698653e+00	
5.210802e-01	5.587652e-01	2.085966e+02	9.705820e+03	-1.604500e+01	6.280432e+07	8.195969e+05	6.525842e+02	-2.992714e-03	1.698274e+00	
5.296699e-01	5.582369e-01	2.083776e+02	9.700020e+03	-2.007844e+01	6.273772e+07	8.194324e+05	6.525705e+02	-3.720920e-03	1.697800e+00	
5.382834e-01	5.578364e-01	2.081258e+02	9.693389e+03	-2.464072e+01	6.266114e+07	8.192429e+05	6.525548e+02	-4.559738e-03	1.697250e+00	
4.920187e-01	5.209634e-01	2.084706e+02	9.702557e+03	-1.840865e+01	6.276598e+07	8.195023e+05	6.525763e+02	-3.411824e-03	1.698016e+00	
4.999687e-01	5.199248e-01	2.082227e+02	9.695958e+03	-2.308306e+01	6.269062e+07	8.193159e+05	6.525609e+02	-4.236670e-03	1.697467e+00	
5.120677e-01	5.256192e-01	2.079960e+02	9.689897e+03	-2.735434e+01	6.262167e+07	8.191452e+05	6.525467e+02	-4.992463e-03	1.696949e+00	
5.236183e-01	5.320816e-01	2.077822e+02	9.684119e+03	-3.140649e+01	6.255665e+07	8.189839e+05	6.525333e+02	-5.706279e-03	1.696441e+00	
5.308847e-01	5.317421e-01	2.074811e+02	9.675992e+03	-3.713310e+01	6.246510e+07	8.187565e+05	6.525145e+02	-6.713227e-03	1.695712e+00	
5.415991e-01	5.373632e-01	2.072176e+02	9.668863e+03	-4.195812e+01	6.238497e+07	8.185570e+05	6.524980e+02	-7.596137e-03	1.695056e+00	
5.468536e-01	5.570105e-01	2.077958e+02	9.684746e+03	-3.062493e+01	6.256082e+07	8.189942e+05	6.525342e+02	-5.660665e-03	1.696519e+00	
5.486514e-01	5.374701e-01	2.068385e+02	9.658696e+03	-4.898098e+01	6.226971e+07	8.182694e+05	6.524742e+02	-8.869137e-03	1.694105e+00	
5.566471e-01	5.539939e-01	2.072357e+02	9.669695e+03	-4.115986e+01	6.239049e+07	8.185707e+05	6.524991e+02	-7.535435e-03	1.695161e+00	
5.659184e-01	5.499848e-01	2.065030e+02	9.650057e+03	-5.483137e+01	6.216769e+07	8.180142e+05	6.524531e+02	-9.999017e-03	1.693303e+00	
5.650723e-01	5.574541e-01	2.069996e+02	9.663431e+03	-4.552806e+01	6.231872e+07	8.183917e+05	6.524843e+02	-8.327671e-03	1.694585e+00	
5.557560e-01	5.371176e-01	2.063889e+02	9.646572e+03	-5.738001e+01	6.213298e+07	8.179273e+05	6.524459e+02	-1.038376e-02	1.692929e+00	
5.676262e-01	5.413695e-01	2.058189e+02	9.631584e+03	-6.766930e+01	6.195968e+07	8.174920e+05	6.524100e+02	-1.231068e-02	1.691449e+00	
5.625804e-01	5.359581e-01	2.058336e+02	9.631676e+03	-6.766568e+01	6.196413e+07	8.175032e+05	6.524110e+02	-1.226098e-02	1.691437e+00	
5.682452e-01	5.342226e-01	2.051676e+02	9.613798e+03	-8.007327e+01	6.176165e+07	8.169923e+05	6.523689e+02	-1.452240e-02	1.689568e+00	
4.034975e-01	5.678127e-01	2.094797e+02	9.728533e+03	-3.033656e-01	6.307281e+07	8.202579e+05	6.526392e+02	-6.701241e-05	1.699970e+00	
4.148391e-01	5.675532e-01	2.094687e+02	9.728268e+03	-4.773845e-01	6.306946e+07	8.202496e+05	6.526385e+02	-1.034063e-04	1.699953e+00	
4.073554e-01	5.550592e-01	2.094671e+02	9.728234e+03	-4.931192e-01	6.306898e+07	8.202485e+05	6.526384e+02	-1.086369e-04	1.699952e+00	
4.220850e-01	5.670204e-01	2.094585e+02	9.728024e+03	-6.379068e-01	6.306635e+07	8.202420e+05	6.526379e+02	-1.372085e-04	1.699938e+00	
4.308029e-01	5.671092e-01	2.094445e+02	9.727689e+03	-8.607077e-01	6.306211e+07	8.202316e+05	6.526370e+02	-1.832784e-04	1.699916e+00	
4.051327e-01	5.456989e-01	2.094626e+02	9.728123e+03	-5.658460e-01	6.306762e+07	8.202451e+05	6.526381e+02	-1.234184e-04	1.699944e+00	
4.396320e-01	5.672788e-01	2.094257e+02	9.727231e+03	-1.169229e+00	6.305638e+07	8.202175e+05	6.526358e+02	-2.455546e-04	1.699886e+00	
4.031594e-01	5.363960e-01	2.094564e+02	9.727967e+03	-6.715956e-01	6.306570e+07	8.202404e+05	6.526377e+02	-1.442031e-04	1.699934e+00	
4.484298e-01	5.673913e-01	2.094007e+02	9.726616e+03	-1.588947e+00	6.304879e+07	8.201989e+05	6.526343e+02	-3.280437e-04	1.699845e+00	
4.017196e-01	5.272558e-01	2.094477e+02	9.727756e+03	-8.128640e-01	6.306306e+07	8.202339e+05	6.526372e+02	-1.729271e-04	1.699920e+00	
4.281029e-01	5.069397e-01	2.092718e+02	9.723412e+03	-3.721372e+00	6.300961e+07	8.201026e+05	6.526263e+02	-7.543049e-04	1.699625e+00	
4.503497e-01	5.093172e-01	2.090559e+02	9.717957e+03	-7.432155e+00	6.294395e+07	8.199411e+05	6.526128e+02	-1.469202e-03	1.699233e+00	
4.585875e-01	5.089974e-01	2.089298e+02	9.714708e+03	-9.700212e+00	6.290563e+07	8.198467e+05	6.526050e+02	-1.886935e-03	1.698988e+00	
4.571802e-01	5.674214e-01	2.093685e+02	9.725813e+03	-2.143109e+00	6.303900e+07	8.201748e+05	6.526323e+02	-4.345672e-04	1.699790e+00	
4.060464e-01	5.022710e-01	2.093783e+02	9.726049e+03	-1.957680e+00	6.304199e+07	8.201822e+05	6.526329e+02	-4.020543e-04	1.699805e+00	
4.137323e-01	5.009830e-01	2.093357e+02	9.725001e+03	-2.652099e+00	6.302903e+07	8.201504e+05	6.526302e+02	-5.429294e-04	1.699734e+00	
4.370294e-01	5.024455e-01	2.091555e+02	9.720488e+03	-5.697676e+00	6.297424e+07	8.200156e+05	6.526190e+02	-1.139261e-03	1.699417e+00	
3.940900e-01	5.135670e-01	2.094435e+02	9.727651e+03	-8.889446e-01	6.306179e+07	8.202308e+05	6.526369e+02	-1.867084e-04	1.699913e+00	
4.658868e-01	5.673834e-01	2.093278e+02	9.724786e+03	-2.856956e+00	6.302662e+07	8.201444e+05	6.526297e+02	-5.691817e-04	1.699718e+00	
3.919064e-01	4.964758e-01	2.094163e+02	9.726991e+03	-1.337321e+00	6.305354e+07	8.202106e+05	6.526352e+02	-2.764450e-04	1.699869e+00	
3.900834e-01	5.047039e-01	2.094391e+02	9.727545e+03	-9.666673e-01	6.306045e+07	8.202275e+05	6.526367e+02	-2.012664e-04	1.699906e+00	
4.750430e-01	5.077845e-01	2.085836e+02	9.705637e+03	-1.610567e+01	6.280035e+07	8.195871e+05	6.525834e+02	-3.036145e-03	1.698275e+00	
4.745567e-01	5.673017e-01	2.092774e+02	9.723500e+03	-3.757093e+00	6.301129e+07	8.201067e+05	6.526266e+02	-7.359782e-04	1.699626e+00	
4.668450e-01	5.084791e-01	2.087737e+02	9.710640e+03	-1.256376e+01	6.285816e+07	8.197298e+05	6.525952e+02	-2.404780e-03	1.698673e+00	
4.831888e-01	5.671996e-01	2.092162e+02	9.721923e+03	-4.862848e+00	6.299268e+07	8.200610e+05	6.526228e+02	-9.384376e-04	1.699510e+00	
3.807298e-01	4.906693e-01	2.094355e+02	9.727465e+03	-1.018448e+00	6.305937e+07	8.202249e+05	6.526364e+02	-2.130738e-04	1.699901e+00	
4.917703e-01	5.670827e-01	2.091428e+02	9.720023e+03	-6.188717e+00	6.297039e+07	8.200062e+05	6.526182e+02	-1.181124e-03	1.699369e+00	
5.002965e-01	5.669229e-01	2.090540e+02	9.717722e+03	-7.781226e+00	6.294338e+07	8.199397e+05	6.526127e+02	-1.475336e-03	1.699196e+00	
5.087942e-01	5.666744e-01	2.089433e+02	9.714860e+03	-9.757954e+00	6.290971e+07	8.198568e+05	6.526058e+02	-1.842348e-03	1.698980e+00	
5.173171e-01	5.663193e-01	2.088032e+02	9.711225e+03	-1.227815e+01	6.286711e+07	8.197518e+05	6.525971e+02	-2.306993e-03	1.698701e+00	
5.259090e-01	5.659026e-01	2.086294e+02	9.706679e+03	-1.543607e+01	6.281427e+07	8.196215e+05	6.525862e+02	-2.883941e-03	1.698343e+00	
5.345701e-01	5.654660e-01	2.084193e+02	9.701170e+03	-1.924644e+01	6.275040e+07	8.194638e+05	6.525731e+02	-3.582195e-03	1.697899e+00	
4.875111e-01	5.139441e-01	2.084153e+02	9.701134e+03	-1.935884e+01	6.274918e+07	8.194607e+05	6.525729e+02	-3.595600e-03	1.697903e+00	
4.954460e-01	5.130531e-01	2.081588e+02	9.694290e+03	-2.422317e+01	6.267119e+07	8.192678e+05	6.525569e+02	-4.449492e-03	1.697329e+00	
5.075990e-01	5.190031e-01	2.079343e+02	9.688258e+03	-2.851167e+01	6.260291e+07	8.190987e+05	6.525428e+02	-5.198374e-03	1.696808e+00	
5.193457e-01	5.251343e-01	2.076964e+02	9.681883e+03	-3.299194e+01	6.253057e+07	8.189192e+05	6.525280e+02	-5.993004e-03	1.696249e+00	
5.265776e-01	5.248042e-01	2.073636e+02	9.672900e+03	-3.933527e+01	6.242938e+07	8.186676e+05	6.525071e+02	-7.106636e-03	1.695436e+00	
5.378561e-01	5.309013e-01	2.070854e+02	9.665341e+03	-4.458546e+01	6.234476e+07	8.184568e+05	6.524897e+02	-8.039883e-03	1.694732e+00	
5.433026e-01	5.648957e-01	2.081577e+02	9.694338e+03	-2.397704e+01	6.267086e+07	8.192670e+05	6.525568e+02	-4.453251e-03	1.697340e+00	
5.447262e-01	5.306398e-01	2.066828e+02	9.654466e+03	-5.214717e+01	6.222236e+07	8.181511e+05	6.524644e+02	-9.393085e-03	1.693697e+00	
5.522572e-01	5.639711e-01	2.078114e+02	9.685173e+03	-3.038630e+01	6.256556e+07	8.190060e+05	6.525352e+02	-5.608593e-03	1.696557e+00	
5.611326e-01	5.637058e-01	2.074626e+02	9.675864e+03	-3.687511e+01	6.245950e+07	8.187425e+05	6.525133e+02	-6.775028e-03	1.695731e+00	
5.516315e-01	5.302730e-01	2.062209e+02	9.641953e+03	-6.083064e+01	6.208191e+07	8.177992e+05	6.524354e+02	-1.095067e-02	1.692465e+00	
5.736044e-01	5.467004e-01	2.057147e+02	9.628855e+03	-6.966425e+01	6.192799e+07	8.174122e+05	6.524035e+02	-1.266388e-02	1.691174e+00	
5.583835e-01	5.295757e-01	2.056796e+02	9.627283e+03	-7.096705e+01	6.191730e+07	8.173853e+05	6.524013e+02	-1.278284e-02	1.690967e+00	
5.694612e-01	5.634098e-01	2.070385e+02	9.664657e+03	-4.465817e+01	6.233055e+07	8.184212e+05	6.524867e+02	-8.197109e-03	1.694715e+00	
5.719388e-01	5.554757e-01	2.064338e+02	9.648325e+03	-5.606316e+01	6.214667e+07	8.179615e+05	6.524488e+02	-1.023208e-02	1.693143e+00	
5.747718e-01	5.364387e-01	2.047604e+02	9.602803e+03	-8.783158e+01	6.163781e+07	8.166787e+05	6.523432e+02	-1.591096e-02	1.688373e+00	
5.647963e-01	5.286110e-01	2.050475e+02	9.610250e+03	-8.268518e+01	6.172509e+07	8.168999e+05	6.523613e+02	-1.493168e-02	1.689165e+00	
5.779327e-01	5.269644e-01	2.035979e+02	9.570729e+03	-1.102236e+02	6.128432e+07	8.157778e+05	6.522694e+02	-1.989857e-02	1.684672e+00	
5.711477e-01	5.280380e-01	2.043710e+02	9.591922e+03	-9.539477e+01	6.151940e+07	8.163778e+05	6.523185e+02	-1.724267e-02	1.687137e+00	
4.008828e-01	5.741312e-01	2.094846e+02	9.728651e+03	-2.267875e-01	6.307430e+07	8.202615e+05	6.526395e+02	-5.077996e-05	1.699978e+00	
4.092418e-01	5.730413e-01	2.094781e+02	9.728494e+03	-3.288892e-01	6.307231e+07	8.202566e+05	6.526391e+02	-7.240059e-05	1.699968e+00	
4.017453e-01	5.606526e-01	2.094770e+02	9.728469e+03	-3.437974e-01	6.307198e+07	8.202558e+05	6.526390e+02	-7.592981e-05	1.699966e+00	
4.180874e-01	5.742882e-01	2.094704e+02	9.728311e+03	-4.497680e-01	6.306999e+07	8.202509e+05	6.526386e+02	-9.762480e-05	1.699956e+00	
4.265670e-01	5.744901e-01	2.094600e+02	9.728059e+03	-6.173677e-01	6.306682e+07	8.202432e+05	6.526380e+02	-1.320682e-04	1.699940e+00	
3.996385e-01	5.517861e-01	2.094736e+02	9.728388e+03	-3.951999e-01	6.307096e+07	8.202533e+05	6.526388e+02	-8.707167e-05	1.699961e+00	
4.352752e-01	5.746005e-01	2.094464e+02	9.727729e+03	-8.393885e-01	6.306267e+07	8.202330e+05	6.526371e+02	-1.772335e-04	1.699918e+00	
3.975446e-01	5.423496e-01	2.094694e+02	9.728283e+03	-4.648299e-01	6.306966e+07	8.202501e+05	6.526385e+02	-1.012369e-04	1.699954e+00	
4.440394e-01	5.746818e-01	2.094283e+02	9.727287e+03	-1.138487e+00	6.305717e+07	8.202195e+05	6.526360e+02	-2.369719e-04	1.699889e+00	
3.958168e-01	5.328296e-01	2.094635e+02	9.728140e+03	-5.605398e-01	6.306788e+07	8.202458e+05	6.526382e+02	-1.205925e-04	1.699945e+00	
4.460360e-01	5.023490e-01	2.090384e+02	9.717502e+03	-7.743599e+00	6.293865e+07	8.199280e+05	6.526117e+02	-1.526986e-03	1.699198e+00	
4.543092e-01	5.020534e-01	2.089030e+02	9.714017e+03	-1.016218e+01	6.289746e+07	8.198266e+05	6.526033e+02	-1.975974e-03	1.698936e+00	
4.527899e-01	5.747167e-01	2.094046e+02	9.726704e+03	-1.538259e+00	6.304998e+07	8.202018e+05	6.526345e+02	-3.151296e-04	1.699850e+00	
4.218007e-01	4.997607e-01	2.092785e+02	9.723575e+03	-3.611268e+00	6.301162e+07	8.201076e+05	6.526267e+02	-7.323391e-04	1.699636e+00	
4.356757e-01	4.948825e-01	2.090993e+02	9.719056e+03	-6.679863e+00	6.295715e+07	8.199736e+05	6.526155e+02	-1.325386e-03	1.699313e+00	
4.296568e-01	4.976771e-01	2.091988e+02	9.721576e+03	-4.961431e+00	6.298739e+07	8.200480e+05	6.526217e+02	-9.960564e-04	1.699495e+00	
3.946281e-01	5.234214e-01	2.094556e+02	9.727946e+03	-6.904728e-01	6.306546e+07	8.202398e+05	6.526377e+02	-1.468264e-04	1.699932e+00	
4.615116e-01	5.746994e-01	2.093743e+02	9.725945e+03	-2.062253e+00	6.304075e+07	8.201791e+05	6.526326e+02	-4.155343e-04	1.699798e+00	
4.086051e-01	4.947028e-01	2.093388e+02	9.725078e+03	-2.612776e+00	6.302996e+07	8.201526e+05	6.526304e+02	-5.328606e-04	1.699740e+00	
3.999751e-01	4.966278e-01	2.093845e+02	9.726209e+03	-1.857924e+00	6.304386e+07	8.201868e+05	6.526333e+02	-3.817390e-04	1.699817e+00	
3.866826e-01	5.122510e-01	2.094553e+02	9.727940e+03	-7.008770e-01	6.306537e+07	8.202396e+05	6.526377e+02	-1.477789e-04	1.699932e+00	
3.829828e-01	4.980637e-01	2.094424e+02	9.727631e+03	-9.080252e-01	6.306146e+07	8.202300e+05	6.526369e+02	-1.903420e-04	1.699912e+00	
4.702070e-01	5.746362e-01	2.093360e+02	9.724977e+03	-2.734773e+00	6.302911e+07	8.201505e+05	6.526302e+02	-5.421355e-04	1.699730e+00	
4.788797e-01	5.745375e-01	2.092885e+02	9.723766e+03	-3.579629e+00	6.301468e+07	8.201151e+05	6.526273e+02	-6.990167e-04	1.699643e+00	
3.875352e-01	4.901603e-01	2.094148e+02	9.726956e+03	-1.359758e+00	6.305306e+07	8.202094e+05	6.526351e+02	-2.816100e-04	1.699867e+00	
4.875292e-01	5.744095e-01	2.092305e+02	9.722274e+03	-4.619629e+00	6.299705e+07	8.200717e+05	6.526237e+02	-8.908792e-04	1.699534e+00	
3.753271e-01	4.868234e-01	2.094405e+02	9.727590e+03	-9.351829e-01	6.306089e+07	8.202286e+05	6.526367e+02	-1.965135e-04	1.699910e+00	
4.961535e-01	5.742470e-01	2.091598e+02	9.720448e+03	-5.886455e+00	6.297555e+07	8.200189e+05	6.526193e+02	-1.124966e-03	1.699399e+00	
5.047593e-01	5.740343e-01	2.090727e+02	9.718200e+03	-7.441269e+00	6.294905e+07	8.199537e+05	6.526139e+02	-1.413547e-03	1.699232e+00	
5.133661e-01	5.737593e-01	2.089639e+02	9.715393e+03	-9.382983e+00	6.291599e+07	8.198723e+05	6.526071e+02	-1.773784e-03	1.699021e+00	
5.219999e-01	5.734272e-01	2.088283e+02	9.711876e+03	-1.182091e+01	6.287476e+07	8.197707e+05	6.525986e+02	-2.223548e-03	1.698751e+00	
5.306805e-01	5.730511e-01	2.086609e+02	9.707515e+03	-1.484426e+01	6.282386e+07	8.196452e+05	6.525882e+02	-2.779241e-03	1.698410e+00	
4.625152e-01	5.015498e-01	2.087373e+02	9.709708e+03	-1.318769e+01	6.284708e+07	8.197024e+05	6.525930e+02	-2.525729e-03	1.698602e+00	
4.706787e-01	5.008643e-01	2.085354e+02	9.704401e+03	-1.694090e+01	6.278571e+07	8.195510e+05	6.525804e+02	-3.196185e-03	1.698178e+00	
4.831212e-01	5.069773e-01	2.083557e+02	9.699592e+03	-2.040085e+01	6.273105e+07	8.194159e+05	6.525692e+02	-3.793947e-03	1.697779e+00	
4.910366e-01	5.061328e-01	2.080858e+02	9.692388e+03	-2.552578e+01	6.264900e+07	8.192129e+05	6.525523e+02	-4.692774e-03	1.697171e+00	
5.031539e-01	5.122078e-01	2.078584e+02	9.686244e+03	-2.992044e+01	6.257985e+07	8.190415e+05	6.525381e+02	-5.451554e-03	1.696635e+00	
5.150102e-01	5.183423e-01	2.076100e+02	9.679563e+03	-3.463282e+01	6.250431e+07	8.188539e+05	6.525226e+02	-6.281714e-03	1.696042e+00	
5.222960e-01	5.178671e-01	2.072475e+02	9.669787e+03	-4.152835e+01	6.239407e+07	8.185797e+05	6.524998e+02	-7.495839e-03	1.695152e+00	
5.337071e-01	5.243362e-01	2.069767e+02	9.662449e+03	-4.668071e+01	6.231174e+07	8.183744e+05	6.524829e+02	-8.404622e-03	1.694463e+00	