# vtk DataFile Version 3.0
Template vtk file for Paraview visualization
ASCII
DATASET UNSTRUCTURED_GRID
POINTS 28934 double
0.000542418 0 0.0
0.000542192 0.000171429 0.0
0.000541515 0.000342857 0.0
0.000540385 0.000514286 0.0
0.000538804 0.000685714 0.0
0.00053677 0.000857143 0.0
0.000534285 0.00102857 0.0
0.000531348 0.0012 0.0
0.00052796 0.00137143 0.0
0.000524119 0.00154286 0.0
0.000519827 0.00171429 0.0
0.000515083 0.00188571 0.0
0.000509887 0.00205714 0.0
0.000504239 0.00222857 0.0
0.000498139 0.0024 0.0
0.000491588 0.00257143 0.0
0.000484584 0.00274286 0.0
0.000477129 0.00291429 0.0
0.000469222 0.00308571 0.0
0.000460863 0.00325714 0.0
0.000452053 0.00342857 0.0
0.00044279 0.0036 0.0
0.000433076 0.00377143 0.0
0.00042291 0.00394286 0.0
0.000412292 0.00411429 0.0
0.000401222 0.00428571 0.0
0.000389701 0.00445714 0.0
0.000377727 0.00462857 0.0
0.000365302 0.0048 0.0
0.000352425 0.00497143 0.0
0.000339096 0.00514286 0.0
0.000325315 0.00531429 0.0
0.000311083 0.00548571 0.0
0.000296398 0.00565714 0.0
0.000281262 0.00582857 0.0
0.000265674 0.006 0.0
0.000249634 0.00617143 0.0
0.000233143 0.00634286 0.0
0.000216199 0.00651429 0.0
0.000198804 0.00668571 0.0
0.000180957 0.00685714 0.0
0.000162658 0.00702857 0.0
0.000143907 0.0072 0.0
0.000124704 0.00737143 0.0
0.00010505 0.00754286 0.0
8.49435e-05 0.00771429 0.0
6.43853e-05 0.00788571 0.0
4.33754e-05 0.00805714 0.0
2.19136e-05 0.00822857 0.0
2.33147e-19 0.0084 0.0
0.000542602 7.19202e-05 0.0
0.000542898 0 0.0
0.000542516 0.000223303 0.0
0.000543052 0.000150702 0.0
0.000543478 9.29982e-05 0.0
0.000544256 0 0.0
0.000541997 0.000388446 0.0
0.000543134 0.000288959 0.0
0.000543781 0.000229796 0.0
0.00054431 0.000181343 0.0
0.000545279 9.66285e-05 0.0
0.000546517 0 0.0
0.00054103 0.00055711 0.0
0.000542776 0.000445888 0.0
0.00054405 0.000359916 0.0
0.000544792 0.000308817 0.0
0.000545408 0.000266413 0.0
0.000546543 0.000189839 0.0
0.000547988 9.77519e-05 0.0
0.00054968 0 0.0
0.000539612 0.000727016 0.0
0.000541969 0.000609638 0.0
0.000543856 0.00050992 0.0
0.000545259 0.000433377 0.0
0.000546086 0.000387761 0.0
0.000546777 0.000349638 0.0
0.000548059 0.000279724 0.0
0.000549695 0.000193223 0.0
0.000551603 9.82402e-05 0.0
0.000553748 0 0.0
0.000537743 0.000897488 0.0
0.000540713 0.000776396 0.0
0.00054321 0.000668622 0.0
0.000545236 0.000577824 0.0
0.000546759 0.000508233 0.0
0.000547663 0.000466648 0.0
0.000548423 0.000431745 0.0
0.000549836 0.000367185 0.0
0.000551647 0.000286007 0.0
0.000553758 0.000194897 0.0
0.000556122 9.84992e-05 0.0
0.00055872 0 0.0
0.000535422 0.00106826 0.0
0.000539006 0.000944709 0.0
0.000542114 0.000831728 0.0
0.000544752 0.000731942 0.0
0.000546913 0.000648178 0.0
0.000548549 0.000583959 0.0
0.000549525 0.000545496 0.0
0.000550346 0.000513124 0.0
0.00055188 0.000452926 0.0
0.000553851 0.000376481 0.0
0.000556152 0.000289456 0.0
0.000558727 0.000195848 0.0
0.000561547 9.8657e-05 0.0
0.000564597 0 0.0
0.00053265 0.00123922 0.0
0.000536849 0.00111392 0.0
0.000540569 0.000997333 0.0
0.000543818 0.00089142 0.0
0.000546596 0.000798272 0.0
0.000548885 0.000720189 0.0
0.000550628 0.000660271 0.0
0.00055167 0.00062432 0.0
0.00055255 0.000594001 0.0
0.000554195 0.000537425 0.0
0.000556315 0.000465111 0.0
0.000558794 0.000382003 0.0
0.000561568 0.000291551 0.0
0.000564603 0.000196447 0.0
0.000567876 9.87643e-05 0.0
0.00057138 0 0.0
0.000529427 0.00141028 0.0
0.000534241 0.0012837 0.0
0.000538573 0.00116448 0.0
0.000542433 0.00105416 0.0
0.000545824 0.000954352 0.0
0.000548739 0.000866772 0.0
0.000551152 0.00079338 0.0
0.000552995 0.000737003 0.0
0.0005541 0.000703128 0.0
0.000555033 0.000674519 0.0
0.000556783 0.000621002 0.0
0.000559042 0.000552291 0.0
0.000561688 0.000472801 0.0
0.000564652 0.00038555 0.0
0.000567893 0.000292926 0.0
0.000571384 0.000196856 0.0
0.000575111 9.8844e-05 0.0
0.000579068 0 0.0
0.000525751 0.00158143 0.0
0.000531181 0.00145385 0.0
0.000536127 0.00133264 0.0
0.000540598 0.00121901 0.0
0.0005446 0.00111426 0.0
0.000548131 0.00101974 0.0
0.000551179 0.000936888 0.0
0.000553711 0.000867446 0.0
0.00055565 0.00081405 0.0
0.000556814 0.000781929 0.0
0.000557799 0.000754772 0.0
0.000559647 0.000703878 0.0
0.000562037 0.000638325 0.0
0.00056484 0.000562127 0.0
0.000567984 0.000477968 0.0
0.000571422 0.000387969 0.0
0.000575124 0.000293886 0.0
0.000579071 0.000197154 0.0
0.000583253 9.89081e-05 0.0
0.000587663 0 0.0
0.000521624 0.00175263 0.0
0.00052767 0.00162426 0.0
0.000533231 0.00150149 0.0
0.000538314 0.00138531 0.0
0.000542926 0.00127677 0.0
0.00054707 0.00117696 0.0
0.000550739 0.00108703 0.0
0.000553916 0.00100825 0.0
0.000556562 0.000942185 0.0
0.000558592 0.000891343 0.0
0.000559813 0.00086073 0.0
0.000560846 0.000834825 0.0
0.000562787 0.000786212 0.0
0.000565301 0.000723445 0.0
0.000568254 0.000650227 0.0
0.000571569 0.000568984 0.0
0.000575196 0.000481613 0.0
0.000579102 0.000389702 0.0
0.000583263 0.000294591 0.0
0.000587666 0.000197384 0.0
0.000592301 9.8963e-05 0.0
0.000597166 0 0.0
0.000517045 0.00192388 0.0
0.000523708 0.00179486 0.0
0.000529883 0.00167084 0.0
0.000535579 0.00155263 0.0
0.000540803 0.0014411 0.0
0.000545557 0.00133715 0.0
0.000549841 0.00124173 0.0
0.000553646 0.00115583 0.0
0.000556949 0.00108058 0.0
0.000559704 0.00101746 0.0
0.000561822 0.000968834 0.0
0.000563097 0.000939534 0.0
0.000564177 0.000914725 0.0
0.000566206 0.000868116 0.0
0.000568839 0.000807826 0.0
0.000571934 0.000737309 0.0
0.000575412 0.000658781 0.0
0.00057922 0.000573962 0.0
0.000583321 0.00048429 0.0
0.00058769 0.000390997 0.0
0.00059231 0.000295134 0.0
0.000597168 0.000197572 0.0
0.000602258 9.90125e-05 0.0
0.000607576 0 0.0
0.000512015 0.00209515 0.0
0.000519294 0.0019656 0.0
0.000526085 0.00184056 0.0
0.000532394 0.0017207 0.0
0.000538229 0.00160676 0.0
0.000543595 0.00149949 0.0
0.000548491 0.0013997 0.0
0.000552914 0.00130819 0.0
0.000556851 0.00122585 0.0
0.000560275 0.00115371 0.0
0.000563137 0.00109316 0.0
0.000565339 0.00104649 0.0
0.000566666 0.00101835 0.0
0.00056779 0.000994506 0.0
0.000569905 0.000949677 0.0
0.00057265 0.000891605 0.0
0.000575881 0.000823538 0.0
0.000579515 0.000747529 0.0
0.000583497 0.000665146 0.0
0.000587787 0.000577701 0.0
0.000592358 0.000486325 0.0
0.000597188 0.000392 0.0
0.000602264 0.000295569 0.0
0.000607578 0.000197731 0.0
0.000613122 9.90591e-05 0.0
0.000618895 0 0.0
0.000506532 0.00226645 0.0
0.000514428 0.00213646 0.0
0.000521835 0.00201056 0.0
0.000528759 0.00188934 0.0
0.000535206 0.00177342 0.0
0.000541182 0.00166344 0.0
0.00054669 0.00156008 0.0
0.000551727 0.00146404 0.0
0.000556286 0.00137603 0.0
0.000560353 0.00129686 0.0
0.000563895 0.00122748 0.0
0.00056686 0.00116922 0.0
0.000569143 0.00112428 0.0
0.00057052 0.00109717 0.0
0.000571686 0.0010742 0.0
0.000573883 0.00103096 0.0
0.000576737 0.000974887 0.0
0.000580098 0.000909052 0.0
0.000583882 0.000835372 0.0
0.000588031 0.000755295 0.0
0.000592503 0.000670022 0.0
0.000597268 0.000580592 0.0
0.000602304 0.00048792 0.0
0.000607594 0.000392805 0.0
0.000613128 0.00029593 0.0
0.000618896 0.000197873 0.0
0.000624896 9.91041e-05 0.0
0.000631124 0 0.0
0.000500598 0.00243776 0.0
0.000509111 0.00230739 0.0
0.000517134 0.00218078 0.0
0.000524672 0.00205841 0.0
0.000531733 0.00194084 0.0
0.00053832 0.00182861 0.0
0.000544439 0.00172231 0.0
0.000550088 0.00162253 0.0
0.000555264 0.00152989 0.0
0.000559958 0.00144503 0.0
0.000564151 0.0013687 0.0
0.000567808 0.00130179 0.0
0.000570872 0.00124558 0.0
0.000573234 0.0012022 0.0
0.000574659 0.00117602 0.0
0.000575867 0.00115381 0.0
0.000578142 0.00111202 0.0
0.0005811 0.00105776 0.0
0.000584587 0.000993961 0.0
0.000588515 0.000922438 0.0
0.000592825 0.000844531 0.0
0.000597473 0.000761349 0.0
0.000602427 0.000673852 0.0
0.000607662 0.000582887 0.0
0.000613161 0.000489207 0.0
0.000618911 0.000393468 0.0
0.000624901 0.00029624 0.0
0.000631125 0.000198002 0.0
0.00063758 9.91486e-05 0.0
0.000644264 0 0.0
0.000494212 0.00260909 0.0
0.000503342 0.0024784 0.0
0.000511981 0.00235117 0.0
0.000520134 0.00222783 0.0
0.000527809 0.00210886 0.0
0.000535008 0.00199474 0.0
0.000541738 0.00188597 0.0
0.000547998 0.00178307 0.0
0.000553789 0.00168657 0.0
0.000559103 0.00159702 0.0
0.000563929 0.00151501 0.0
0.000568244 0.00144124 0.0
0.000572014 0.00137656 0.0
0.000575174 0.00132219 0.0
0.000577612 0.00128022 0.0
0.000579083 0.00125488 0.0
0.000580331 0.00123338 0.0
0.000582683 0.00119289 0.0
0.000585742 0.00114028 0.0
0.00058935 0.00107836 0.0
0.000593417 0.00100883 0.0
0.000597882 0.000932962 0.0
0.000602699 0.00085178 0.0
0.000607836 0.000766173 0.0
0.000613266 0.00067693 0.0
0.000618968 0.000584753 0.0
0.000624929 0.000490271 0.0
0.000631137 0.000394032 0.0
0.000637584 0.000296515 0.0
0.000644264 0.000198123 0.0
0.000651175 9.91935e-05 0.0
0.000658315 0 0.0
0.000487375 0.00278044 0.0
0.000497122 0.00264946 0.0
0.000506377 0.00252169 0.0
0.000515146 0.00239753 0.0
0.000523434 0.00227736 0.0
0.000531247 0.00216162 0.0
0.000538587 0.00205076 0.0
0.000545459 0.00194521 0.0
0.000551862 0.00184546 0.0
0.000557792 0.00175197 0.0
0.000563242 0.00166524 0.0
0.000568197 0.00158583 0.0
0.000572633 0.00151439 0.0
0.000576511 0.00145172 0.0
0.000579765 0.00139904 0.0
0.000582277 0.00135834 0.0
0.000583793 0.00133376 0.0
0.00058508 0.0013129 0.0
0.000587506 0.0012736 0.0
0.000590662 0.00122251 0.0
0.000594387 0.00116231 0.0
0.000598588 0.00109464 0.0
0.000603203 0.00102069 0.0
0.000608185 0.000941406 0.0
0.000613499 0.000857631 0.0
0.000619118 0.000770094 0.0
0.000625019 0.000679454 0.0
0.000631187 0.000586304 0.0
0.000637608 0.000491171 0.0
0.000644275 0.000394523 0.0
0.000651178 0.000296764 0.0
0.000658315 0.00019824 0.0
0.000665683 9.9239e-05 0.0
0.000673279 0 0.0
0.000480085 0.00295179 0.0
0.00049045 0.00282056 0.0
0.000500322 0.00269233 0.0
0.000509706 0.00256744 0.0
0.000518609 0.00244625 0.0
0.000527035 0.00232912 0.0
0.000534987 0.00221645 0.0
0.00054247 0.00210865 0.0
0.000549484 0.00200611 0.0
0.000556028 0.00190927 0.0
0.000562097 0.00181855 0.0
0.00056768 0.00173441 0.0
0.000572762 0.00165737 0.0
[...]
POINT_DATA 28934
SCALARS u[m/s] float
LOOKUP_TABLE default
107.325
107.327
107.331
107.339
107.349
107.363
107.379
107.398
107.421
107.446
107.474
107.506
107.54
107.577
107.617
107.661
107.707
107.756
107.808
107.863
107.921
107.982
108.047
108.114
108.184
108.257
108.333
108.412
108.494
108.578
108.666
108.757
108.851
108.948
109.048
109.151
109.256
109.365
109.477
109.592
109.709
109.83
109.954
110.08
110.21
110.343
110.478
110.617
110.758
110.903
107.326
107.327
107.329
107.329
107.329
107.331
107.335
107.334
107.334
107.334
107.335
107.339
107.344
107.342
107.341
107.34
107.341
107.342
107.344
107.349
107.356
107.352
107.35
107.349
107.349
107.349
107.35
107.352
107.356
107.363
107.371
107.366
107.362
107.36
107.359
107.359
107.359
107.36
107.362
107.366
107.371
107.379
107.389
107.382
107.377
107.374
107.372
107.371
107.371
107.371
107.372
107.374
107.377
107.382
107.389
107.398
107.41
107.401
107.395
107.39
107.388
107.386
107.385
107.385
107.385
107.386
107.388
107.39
107.395
107.401
107.41
107.421
107.434
107.424
107.416
107.41
107.406
107.403
107.402
107.401
107.401
107.401
107.402
107.403
107.406
107.41
107.416
107.424
107.434
107.446
107.461
107.449
107.44
107.432
107.427
107.423
107.421
107.42
107.419
107.419
107.419
107.42
107.421
107.423
107.427
107.432
107.44
107.449
107.461
107.474
107.49
107.477
107.466
107.458
107.451
107.446
107.443
107.44
107.439
107.439
107.439
107.439
107.439
107.44
107.443
107.446
107.451
107.458
107.466
107.477
107.49
107.506
107.523
107.509
107.496
107.486
107.478
107.472
107.467
107.464
107.462
107.461
107.461
107.46
107.461
107.461
107.462
107.464
107.467
107.472
107.478
107.486
107.496
107.509
107.523
107.54
107.559
107.543
107.529
107.517
107.508
107.5
107.494
107.49
107.487
107.485
107.484
107.484
107.484
107.484
107.484
107.485
107.487
107.49
107.494
107.5
107.508
107.517
107.529
107.543
107.559
107.577
107.598
107.58
107.565
107.552
107.541
107.532
107.524
107.519
107.515
107.512
107.51
107.51
107.509
107.509
107.509
107.51
107.51
107.512
107.515
107.519
107.524
107.532
107.541
107.552
107.565
107.58
107.598
107.617
107.639
107.62
107.604
107.589
107.576
107.566
107.557
107.551
107.545
107.542
107.539
107.538
107.537
107.536
107.536
107.536
107.537
107.538
107.539
107.542
107.545
107.551
107.557
107.566
107.576
107.589
107.604
107.62
107.639
107.661
107.684
107.664
107.645
107.629
107.615
107.603
107.593
107.585
107.579
107.574
107.57
107.568
107.567
107.566
107.566
107.566
107.566
107.566
107.567
107.568
107.57
107.574
107.579
107.585
107.593
107.603
107.615
107.629
107.645
107.664
107.684
107.707
107.732
107.71
107.69
107.672
107.657
107.644
107.632
107.623
107.615
107.609
107.604
107.601
107.599
107.597
107.597
107.597
107.596
107.597
107.597
107.597
107.599
107.601
107.604
107.609
107.615
107.623
107.632
107.644
107.657
107.672
107.69
107.71
107.732
107.756
107.782
107.759
107.738
107.719
107.702
107.687
107.674
107.663
107.654
107.647
107.641
107.637
107.634
107.632
107.63
107.63
107.629
107.629
107.629
107.63
107.63
107.632
107.634
107.637
107.641
107.647
107.654
107.663
107.674
107.687
107.702
107.719
107.738
107.759
107.782
107.808
107.836
107.811
107.788
107.768
107.749
107.733
107.719
107.707
107.696
107.688
107.681
107.675
107.671
107.668
107.666
107.665
107.664
107.664
107.664
107.664
107.664
107.665
107.666
107.668
107.671
107.675
107.681
107.688
107.696
107.707
107.719
107.733
107.749
107.768
107.788
107.811
107.836
107.863
107.893
107.866
107.842
107.82
107.8
107.782
107.767
107.753
107.741
107.731
107.723
107.716
107.711
107.707
107.704
107.703
107.701
107.701
107.701
107.701
107.701
107.701
107.701
107.703
107.704
107.707
107.711
107.716
107.723
107.731
107.741
107.753
107.767
107.782
107.8
107.82
107.842
107.866
107.893
107.921
107.952
107.924
107.899
107.875
107.854
107.834
107.817
107.802
107.789
107.778
107.768
107.76
107.754
107.749
107.745
107.743
107.741
107.74
107.739
107.739
107.739
107.739
107.739
107.74
107.741
107.743
107.745
107.749
107.754
107.76
107.768
107.778
107.789
107.802
107.817
107.834
107.854
107.875
107.899
107.924
107.952
107.982
108.015
107.985
107.958
107.933
107.91
107.89
107.871
107.855
107.84
107.827
107.817
107.807
107.8
107.794
107.789
107.785
107.783
107.781
107.78
107.779
107.779
107.779
107.779
107.779
107.78
107.781
107.783
107.785
107.789
107.794
107.8
107.807
107.817
107.827
107.84
107.855
107.871
107.89
107.91
107.933
107.958
107.985
108.015
108.047
108.08
108.049
108.021
107.994
107.97
107.948
107.928
107.91
107.894
107.88
107.868
107.857
107.848
107.841
107.835
107.831
107.827
107.825
107.823
107.822
107.822
107.821
107.821
107.821
107.822
107.822
107.823
107.825
107.827
107.831
107.835
107.841
107.848
107.857
107.868
107.88
107.894
107.91
107.928
107.948
107.97
107.994
108.021
108.049
108.08
108.114
108.149
108.117
108.086
108.058
108.033
108.009
107.987
107.968
107.951
107.935
107.922
107.91
107.9
107.891
107.884
107.879
107.874
107.871
107.869
107.867
107.866
107.866
107.865
107.865
107.865
107.866
107.866
107.867
107.869
107.871
107.874
107.879
107.884
107.891
107.9
107.91
107.922
107.935
107.951
107.968
107.987
108.009
108.033
108.058
108.086
108.117
108.149
108.184
108.22
108.187
108.155
108.125
108.098
108.073
108.05
108.029
108.01
107.993
107.978
107.965
107.954
107.944
107.936
107.93
107.924
107.92
107.917
107.914
107.913
107.912
107.912
107.911
107.911
107.911
107.912
107.912
107.913
107.914
107.917
107.92
107.924
107.93
107.936
107.944
107.954
107.965
107.978
107.993
108.01
108.029
108.05
108.073
108.098
108.125
108.155
108.187
108.22
108.257
108.295
108.26
108.226
108.195
108.167
108.14
108.116
108.093
108.073
108.055
108.038
108.024
108.011
108
107.991
107.983
107.977
107.971
107.967
107.964
107.962
107.961
107.96
107.959
107.959
107.959
107.959
107.959
107.96
107.961
107.962
107.964
107.967
107.971
107.977
107.983
107.991
108
108.011
108.024
108.038
108.055
108.073
108.093
108.116
108.14
108.167
108.195
108.226
108.26
108.295
108.333
108.372
108.336
108.301
108.268
108.238
108.21
108.184
108.16
108.139
108.119
108.101
108.085
108.071
108.059
108.048
108.039
108.032
108.026
108.021
108.017
108.014
108.012
108.01
108.009
108.009
108.009
108.009
108.009
108.009
108.009
108.01
108.012
108.014
108.017
108.021
108.026
108.032
108.039
108.048
108.059
108.071
108.085
108.101
108.119
108.139
108.16
108.184
108.21
108.238
108.268
108.301
108.336
108.372
108.412
108.453
108.415
108.378
108.344
108.313
108.283
108.256
108.23
108.207
108.186
108.167
108.15
108.134
108.121
108.109
108.099
108.09
108.083
108.076
108.072
108.068
108.065
108.063
108.062
108.061
108.06
108.06
108.06
108.06
108.06
108.061
108.062
108.063
108.065
108.068
108.072
108.076
108.083
108.09
108.099
108.109
108.121
108.134
108.15
108.167
108.186
108.207
108.23
108.256
108.283
108.313
108.344
108.378
108.415
108.453
108.494
108.536
108.496
108.459
108.423
108.39
108.359
108.33
108.303
108.279
108.256
108.235
108.217
108.2
108.185
108.172
108.161
108.151
108.142
108.135
108.129
108.125
108.121
108.118
108.116
108.115
108.114
108.114
108.114
108.113
108.114
108.114
108.114
108.115
108.116
108.118
108.121
108.125
108.129
108.135
108.142
108.151
108.161
108.172
108.185
108.2
108.217
108.235
108.256
108.279
108.303
108.33
108.359
108.39
108.423
108.459
108.496
108.536
108.578
108.623
108.581
108.542
108.505
108.471
108.438
108.408
108.379
108.353
108.329
108.307
108.287
108.269
108.253
108.238
108.225
108.214
108.205
108.196
108.19
108.184
108.179
108.176
108.173
108.171
108.17
108.169
108.169
108.169
108.169
108.169
108.169
108.169
108.17
108.171
108.173
108.176
108.179
108.184
108.19
108.196
108.205
108.214
108.225
108.238
108.253
108.269
108.287
108.307
108.329
108.353
108.379
108.408
108.438
108.471
108.505
108.542
108.581
108.623
108.666
108.712
108.669
108.629
108.59
108.554
108.52
108.488
108.458
108.431
108.405
108.382
108.36
108.341
108.323
108.307
108.293
108.281
108.27
108.261
108.253
108.246
108.241
108.236
108.233
108.23
108.228
108.227
108.226
108.226
108.226
108.226
108.226
108.226
108.226
108.227
108.228
108.23
108.233
108.236
108.241
108.246
108.253
108.261
108.27
108.281
108.293
108.307
108.323
108.341
108.36
108.382
108.405
108.431
108.458
108.488
108.52
108.554
108.59
108.629
108.669
108.712
108.757
108.805
108.76
108.718
108.678
108.64
108.605
108.572
108.54
108.511
108.484
108.459
108.436
108.415
108.396
108.379
108.364
108.35
108.338
108.328
108.318
108.311
108.304
108.299
108.295
108.291
108.289
108.287
108.286
108.285
108.285
108.285
108.285
108.285
108.285
108.285
108.286
108.287
108.289
108.291
108.295
108.299
108.304
108.311
108.318
108.328
108.338
108.35
108.364
108.379
108.396
108.415
108.436
108.459
108.484
108.511
108.54
108.572
108.605
108.64
108.678
108.718
108.76
108.805
108.851
108.9
108.854
108.81
108.769
108.73
108.693
108.658
108.625
108.595
108.566
108.54
108.515
108.493
108.473
108.454
108.437
108.422
108.409
108.397
108.387
108.378
108.371
108.365
108.359
108.355
108.352
108.35
108.348
108.347
108.346
108.346
108.345
108.345
108.345
108.346
108.346
108.347
108.348
108.35
108.352
108.355
108.359
108.365
108.371
108.378
108.387
108.397
108.409
108.422
108.437
108.454
108.473
108.493
108.515
108.54
108.566
108.595
108.625
108.658
108.693
108.73
108.769
108.81
108.854
108.9
108.948
108.998
108.951
108.906
108.863
108.822
108.784
108.747
108.713
108.681
108.651
108.623
108.597
108.574
108.552
108.532
108.514
108.497
108.483
108.47
108.458
108.449
108.44
108.433
108.427
108.422
108.418
108.414
108.412
108.41
108.409
108.409
108.408
108.408
108.408
108.408
108.408
108.409
108.409
108.41
108.412
108.414
108.418
108.422
108.427
108.433
108.44
108.449
108.458
108.47
108.483
108.497
108.514
108.532
108.552
108.574
108.597
108.623
108.651
108.681
108.713
108.747
108.784
108.822
108.863
108.906
108.951
108.998
109.048
109.1
109.051
109.004
108.96
108.918
108.878
108.84
108.804
108.77
108.739
108.71
108.682
108.657
108.634
108.613
108.593
108.575
108.56
108.545
108.533
108.522
108.512
108.504
108.496
108.491
108.486
108.482
108.479
108.476
108.475
108.474
108.473
108.473
108.473
108.473
108.473
108.473
108.473
108.474
108.475
108.476
108.479
108.482
108.486
108.491
108.496
108.504
108.512
108.522
108.533
108.545
108.56
108.575
108.593
108.613
108.634
108.657
108.682
108.71
108.739
108.77
108.804
108.84
108.878
108.918
108.96
109.004
109.051
109.1
109.151
109.204
109.154
109.105
109.06
109.016
108.974
108.935
108.898
108.863
108.83
108.799
108.77
108.744
108.719
108.696
108.675
108.656
108.639
108.624
108.61
108.597
108.587
108.577
108.569
108.562
108.556
108.552
108.548
108.545
108.543
108.541
108.54
108.539
108.539
108.539
108.539
108.539
108.539
108.539
108.54
108.541
108.543
108.545
108.548
108.552
108.556
108.562
108.569
108.577
108.587
108.597
108.61
108.624
108.639
108.656
108.675
108.696
108.719
108.744
108.77
108.799
108.83
108.863
108.898
108.935
108.974
109.016
109.06
109.105
109.154
109.204
109.256
109.311
109.259
109.21
109.162
109.117
109.074
109.033
108.995
108.958
108.924
108.892
108.861
108.833
108.807
108.783
108.761
108.74
108.722
108.705
108.69
108.676
108.664
108.654
108.644
108.636
108.63
108.624
108.62
108.616
108.613
108.611
108.609
108.608
108.608
108.607
108.607
108.607
108.607
108.607
108.608
108.608
108.609
108.611
108.613
108.616
108.62
108.624
108.63
108.636
108.644
108.654
108.664
108.676
108.69
108.705
108.722
108.74
108.761
108.783
108.807
108.833
108.861
108.892
108.924
108.958
108.995
109.033
109.074
109.117
109.162
109.21
109.259
109.311
109.365
109.421
109.368
109.317
109.268
109.221
109.177
109.135
109.094
109.057
109.021
108.987
108.955
108.926
108.898
108.873
108.849
108.827
108.807
108.789
108.773
108.758
108.744
108.733
108.722
108.713
108.706
108.699
108.694
108.689
108.686
108.683
108.681
108.679
108.678
108.678
108.677
108.677
108.677
108.677
108.677
108.678
108.678
108.679
108.681
108.683
108.686
108.689
108.694
108.699
108.706
108.713
108.722
108.733
108.744
108.758
108.773
108.789
108.807
108.827
108.849
108.873
108.898
108.926
108.955
108.987
109.021
109.057
109.094
109.135
109.177
109.221
109.268
109.317
109.368
109.421
109.477
109.535
109.48
109.427
109.377
109.329
109.283
109.239
109.197
109.158
109.12
109.085
109.052
109.021
108.992
108.965
108.94
108.917
108.895
108.876
108.858
108.842
108.828
108.815
108.803
108.793
108.784
108.777
108.771
108.765
108.761
108.757
108.755
108.752
108.751
108.75
108.749
108.749
108.749
108.749
108.749
108.749
108.749
108.75
108.751
108.752
108.755
108.757
108.761
108.765
108.771
108.777
108.784
108.793
108.803
108.815
108.828
108.842
108.858
108.876
108.895
108.917
108.94
108.965
108.992
109.021
109.052
109.085
109.12
109.158
109.197
109.239
109.283
109.329
109.377
109.427
109.48
109.535
109.592
109.651
109.595
109.541
109.489
109.439
109.391
109.346
109.303
109.262
109.223
109.187
109.152
109.119
109.089
109.061
109.034
109.009
108.987
108.966
108.947
108.929
108.914
108.9
108.887
108.876
108.866
108.857
108.85
108.844
108.838
108.834
108.831
108.828
108.826
108.825
108.824
108.823
108.823
108.823
108.823
108.823
108.823
108.823
108.824
108.825
108.826
108.828
108.831
108.834
108.838
108.844
108.85
108.857
108.866
108.876
108.887
108.9
108.914
108.929
108.947
108.966
108.987
109.009
109.034
109.061
109.089
109.119
109.152
109.187
109.223
109.262
109.303
109.346
109.391
109.439
109.489
109.541
109.595
109.651
109.709
109.77
109.712
109.657
109.603
109.552
109.503
109.456
109.412
109.369
109.329
109.291
109.255
109.221
109.189
109.159
109.131
109.105
109.081
109.059
109.038
109.02
109.003
108.987
108.973
108.961
108.95
108.94
108.932
108.925
108.919
108.914
108.91
108.906
108.904
108.902
108.9
108.899
108.899
108.898
108.898
108.898
108.898
108.898
108.899
108.899
108.9
108.902
108.904
108.906
108.91
108.914
108.919
108.925
108.932
108.94
108.95
108.961
108.973
108.987
109.003
109.02
109.038
109.059
109.081
109.105
109.131
109.159
109.189
109.221
109.255
109.291
109.329
109.369
109.412
109.456
109.503
109.552
109.603
109.657
109.712
109.77
109.83
109.892
109.833
109.776
109.721
109.668
109.618
109.57
109.524
109.48
109.438
109.398
109.361
109.325
109.292
109.26
109.231
109.204
109.178
109.154
109.133
109.113
109.094
109.078
109.063
109.049
109.037
109.026
109.017
109.009
109.002
108.996
108.991
108.987
108.983
108.981
108.979
108.978
108.977
108.976
108.976
108.976
108.976
108.976
108.976
108.976
108.977
108.978
108.979
108.981
108.983
108.987
108.991
108.996
109.002
109.009
109.017
109.026
109.037
109.049
109.063
109.078
109.094
109.113
109.133
109.154
109.178
109.204
109.231
109.26
109.292
109.325
109.361
109.398
109.438
109.48
109.524
109.57
109.618
109.668
109.721
109.776
109.833
109.892
109.954
110.017
109.957
109.898
109.842
109.788
109.736
109.686
109.638
109.593
109.549
109.508
109.469
109.432
109.397
109.365
109.334
109.305
109.278
109.253
109.23
109.209
109.189
109.171
109.155
109.14
109.127
109.115
109.104
109.095
109.087
109.08
109.074
109.07
109.066
109.062
109.06
109.058
109.057
109.056
109.055
109.055
109.055
109.055
109.055
109.055
109.055
109.056
109.057
109.058
109.06
109.062
109.066
109.07
109.074
109.08
109.087
109.095
109.104
109.115
109.127
109.14
109.155
109.171
109.189
109.209
109.23
109.253
109.278
109.305
109.334
109.365
109.397
109.432
109.469
109.508
109.549
109.593
109.638
109.686
109.736
109.788
109.842
109.898
109.957
110.017
110.08
110.146
110.083
110.023
109.965
109.91
109.856
109.805
109.756
109.709
109.664
109.622
109.581
109.543
109.506
109.472
109.44
109.409
109.381
109.355
109.33
109.307
109.286
109.267
109.25
109.234
109.219
109.206
109.195
109.184
109.175
109.168
109.161
109.155
109.15
109.146
109.143
109.141
109.139
109.138
109.137
109.136
109.136
109.136
109.136
109.136
109.136
109.136
109.137
109.138
109.139
109.141
109.143
109.146
109.15
109.155
109.161
109.168
109.175
109.184
109.195
109.206
109.219
109.234
109.25
109.267
109.286
109.307
109.33
109.355
109.381
109.409
109.44
109.472
109.506
109.543
109.581
109.622
109.664
109.709
109.756
109.805
109.856
109.91
109.965
110.023
110.083
110.146
110.21
110.277
110.213
110.151
110.092
110.035
109.98
109.927
109.877
109.828
109.782
109.738
109.696
109.656
109.618
109.582
109.549
109.517
109.487
109.459
109.433
109.409
109.387
109.366
109.347
109.33
109.315
109.3
109.288
109.276
109.266
109.257
109.25
109.243
109.238
109.233
109.229
109.226
109.224
109.222
109.221
109.22
109.219
109.219
109.219
109.219
109.219
109.219
109.219
109.22
109.221
109.222
109.224
109.226
109.229
109.233
109.238
109.243
109.25
109.257
109.266
109.276
109.288
109.3
109.315
109.33
109.347
109.366
109.387
109.409
109.433
109.459
109.487
109.517
109.549
109.582
109.618
109.656
109.696
109.738
109.782
109.828
109.877
109.927
109.98
110.035
110.092
110.151
110.213
110.277
110.343
110.411
110.346
110.282
110.222
110.163
110.107
110.052
110
109.95
109.902
109.857
109.813
109.772
109.733
109.695
109.66
109.627
109.596
109.567
109.539
109.514
109.49
109.468
109.448
109.43
109.413
109.397
109.383
109.371
109.36
109.35
109.341
109.334
109.327
109.322
109.317
109.314
109.311
109.308
109.307
109.305
109.304
109.304
109.304
109.304
109.304
109.304
109.304
109.304
109.304
109.305
109.307
109.308
109.311
109.314
109.317
109.322
109.327
109.334
109.341
109.35
109.36
109.371
109.383
109.397
109.413
109.43
109.448
109.468
109.49
109.514
109.539
109.567
109.596
109.627
109.66
109.695
109.733
109.772
109.813
109.857
109.902
109.95
110
110.052
110.107
110.163
110.222
110.282
110.346
110.411
110.478
110.548
110.481
110.417
110.354
110.294
110.236
110.18
110.127
110.075
110.026
109.979
109.934
109.891
109.85
109.812
109.775
109.74
109.708
109.677
109.648
109.622
109.596
109.573
109.552
109.532
109.514
109.497
109.482
109.468
109.456
109.445
109.436
109.427
109.42
109.414
109.408
109.404
109.4
109.397
109.395
109.393
109.392
109.391
109.391
109.39
109.39
109.39
109.39
109.39
109.391
109.391
109.392
109.393
109.395
109.397
109.4
109.404
109.408
109.414
109.42
109.427
109.436
109.445
109.456
109.468
109.482
109.497
109.514
109.532
109.552
109.573
109.596
109.622
109.648
109.677
109.708
109.74
109.775
109.812
109.85
109.891
109.934
109.979
110.026
110.075
110.127
110.18
110.236
110.294
110.354
110.417
110.481
110.548
110.617
110.688
110.62
110.554
110.49
110.428
110.369
110.311
110.256
110.203
110.153
110.104
110.058
110.013
109.971
109.931
109.893
109.857
109.823
109.79
109.76
109.732
109.706
109.681
109.658
109.637
109.618
109.6
109.584
109.569
109.555
109.543
109.533
109.523
109.515
109.508
109.502
109.496
109.492
109.488
109.485
109.483
109.481
109.48
109.479
109.479
109.479
109.479
109.479
109.479
109.479
109.479
109.479
109.48
109.481
109.483
109.485
109.488
109.492
109.496
109.502
109.508
109.515
109.523
109.533
109.543
109.555
109.569
109.584
109.6
109.618
109.637
109.658
109.681
109.706
109.732
109.76
109.79
109.823
109.857
109.893
109.931
109.971
110.013
110.058
110.104
110.153
110.203
110.256
110.311
110.369
110.428
110.49
110.554
110.62
110.688
110.758
110.831
110.761
110.694
110.628
110.565
110.504
110.446
110.389
110.334
110.282
110.232
110.184
110.138
110.095
110.053
110.013
109.976
109.94
109.907
109.875
109.846
109.818
109.792
109.768
109.745
109.724
109.705
109.688
109.672
109.657
109.644
109.632
109.622
109.613
109.604
109.597
109.591
109.586
109.582
109.578
109.576
109.573
109.572
109.57
109.57
109.569
109.569
109.569
109.569
109.569
109.569
109.569
109.57
109.57
109.572
109.573
109.576
109.578
109.582
109.586
109.591
109.597
109.604
109.613
109.622
109.632
109.644
109.657
109.672
109.688
109.705
109.724
109.745
109.768
109.792
109.818
109.846
109.875
109.907
109.94
109.976
110.013
110.053
110.095
110.138
110.184
110.232
110.282
110.334
110.389
110.446
110.504
110.565
110.628
110.694
110.761
110.831
110.903
111.67
111.607
111.546
111.488
111.431
111.377
111.324
111.274
111.226
111.179
111.135
111.093
111.053
111.015
110.978
110.944
110.911
110.88
110.852
110.824
110.799
110.775
110.753
110.732
110.713
110.695
110.679
110.664
110.65
110.638
110.627
110.617
110.608
110.6
110.594