# vtk DataFile Version 3.0
Template vtk file for Paraview visualization
ASCII
DATASET UNSTRUCTURED_GRID
POINTS 5918 double
0.0918483 0 0.0
0.0916888 0.0416667 0.0
0.0912105 0.0833333 0.0
0.0904132 0.125 0.0
0.0892969 0.166667 0.0
0.0878618 0.208333 0.0
0.0861078 0.25 0.0
0.0840348 0.291667 0.0
0.0816429 0.333333 0.0
0.0789321 0.375 0.0
0.0759024 0.416667 0.0
0.0725538 0.458333 0.0
0.0688862 0.5 0.0
0.0648997 0.541667 0.0
0.0605944 0.583333 0.0
0.0559701 0.625 0.0
0.0510268 0.666667 0.0
0.0457647 0.708333 0.0
0.0401836 0.75 0.0
0.0342837 0.791667 0.0
0.0280648 0.833333 0.0
0.0215269 0.875 0.0
0.0146702 0.916667 0.0
0.00749457 0.958333 0.0
0 1 0.0
0.0919772 0.0174871 0.0
0.0921857 0 0.0
0.0919167 0.0542719 0.0
0.0922944 0.0366454 0.0
0.0925948 0.0226262 0.0
0.0931447 0 0.0
0.0915508 0.0944139 0.0
0.0923535 0.070237 0.0
0.0928091 0.055877 0.0
0.0931825 0.0441086 0.0
0.0938666 0.0235017 0.0
0.0947408 0 0.0
0.0908683 0.135411 0.0
0.0921007 0.108384 0.0
0.0929999 0.0874959 0.0
0.093523 0.0750953 0.0
0.0939573 0.0647982 0.0
0.094759 0.0461744 0.0
0.0957802 0.0237786 0.0
0.0969757 0 0.0
0.0898678 0.17671 0.0
0.0915317 0.14819 0.0
0.0928636 0.123963 0.0
0.0938537 0.10537 0.0
0.0944369 0.0943022 0.0
0.0949246 0.0850466 0.0
0.09583 0.068045 0.0
0.0969864 0.04701 0.0
0.0983343 0.0239058 0.0
0.0998508 0 0.0
0.0885489 0.218147 0.0
0.0906457 0.188727 0.0
0.0924085 0.162547 0.0
0.0938386 0.140493 0.0
0.0949137 0.123593 0.0
0.0955515 0.113505 0.0
0.0960872 0.105033 0.0
0.0970858 0.0893359 0.0
0.0983657 0.0695977 0.0
0.0998578 0.0474372 0.0
0.10153 0.0239805 0.0
0.103367 0 0.0
0.0869115 0.259658 0.0
0.0894422 0.229643 0.0
0.0916364 0.202201 0.0
0.0934992 0.177969 0.0
0.0950243 0.157629 0.0
0.0961791 0.142038 0.0
0.0968674 0.13271 0.0
0.097447 0.124854 0.0
0.0985308 0.110221 0.0
0.0999244 0.091636 0.0
0.101551 0.0704714 0.0
0.103372 0.047695 0.0
0.105368 0.0240335 0.0
0.107527 0 0.0
0.0849555 0.301212 0.0
0.0879208 0.270778 0.0
0.0905474 0.242465 0.0
0.0928416 0.216749 0.0
0.0948033 0.194136 0.0
0.0964197 0.175182 0.0
0.0976496 0.160639 0.0
0.0983849 0.151922 0.0
0.0990053 0.144566 0.0
0.100168 0.130817 0.0
0.101667 0.11324 0.0
0.10342 0.0930312 0.0
0.105383 0.0710247 0.0
0.107531 0.0478727 0.0
0.10985 0.024077 0.0
0.112333 0 0.0
0.0826809 0.342794 0.0
0.0860814 0.312051 0.0
0.0891413 0.283104 0.0
0.0918671 0.256322 0.0
0.0942615 0.232098 0.0
0.09632 0.210845 0.0
0.0980239 0.193036 0.0
0.099325 0.179357 0.0
0.100105 0.171146 0.0
0.100763 0.164207 0.0
0.102 0.151205 0.0
0.103598 0.134508 0.0
0.105469 0.115182 0.0
0.107567 0.0939574 0.0
0.109862 0.0714111 0.0
0.112336 0.0480095 0.0
0.114979 0.0241165 0.0
0.117786 0 0.0
0.0800877 0.384396 0.0
0.0839238 0.353415 0.0
0.0874179 0.323989 0.0
0.090576 0.296411 0.0
0.0934022 0.270994 0.0
0.095896 0.248062 0.0
0.0980487 0.227964 0.0
0.0998366 0.21112 0.0
0.101205 0.198169 0.0
0.102027 0.190386 0.0
0.102722 0.183802 0.0
0.104028 0.17144 0.0
0.105719 0.155515 0.0
0.107703 0.136994 0.0
0.109929 0.116525 0.0
0.112364 0.0946203 0.0
0.114988 0.0717046 0.0
0.117788 0.0481248 0.0
0.120756 0.0241548 0.0
0.123889 0 0.0
0.0771758 0.426012 0.0
0.0814481 0.394844 0.0
0.0853769 0.365044 0.0
0.0889682 0.336852 0.0
0.0922264 0.310521 0.0
0.0951531 0.286314 0.0
0.0977447 0.264507 0.0
0.0999888 0.245404 0.0
0.101858 0.229387 0.0
0.103291 0.21706 0.0
0.104153 0.209645 0.0
0.104882 0.203367 0.0
0.106255 0.191563 0.0
0.108033 0.176319 0.0
0.110123 0.158528 0.0
0.112471 0.138772 0.0
0.115042 0.117511 0.0
0.117811 0.0951271 0.0
0.120765 0.0719443 0.0
0.123891 0.048229 0.0
0.127186 0.0241935 0.0
0.130646 0 0.0
0.0739454 0.467638 0.0
0.0786542 0.436319 0.0
0.0830184 0.406222 0.0
0.0870436 0.377544 0.0
0.0907343 0.350494 0.0
0.0940933 0.32529 0.0
0.0971196 0.30216 0.0
0.0998071 0.28134 0.0
0.10214 0.263103 0.0
0.104087 0.247805 0.0
0.105582 0.236021 0.0
0.106482 0.228927 0.0
0.107244 0.222916 0.0
0.10868 0.211604 0.0
0.110543 0.196967 0.0
0.112734 0.179836 0.0
0.115198 0.160746 0.0
0.117898 0.14011 0.0
0.120808 0.118275 0.0
0.123911 0.0955381 0.0
0.127193 0.0721524 0.0
0.130648 0.048328 0.0
0.13427 0.0242337 0.0
0.138059 0 0.0
0.0703964 0.509272 0.0
0.0755422 0.477829 0.0
0.0803423 0.44749 0.0
0.0848021 0.418419 0.0
0.0889261 0.390792 0.0
0.0927174 0.364792 0.0
0.096177 0.340608 0.0
0.0993018 0.318437 0.0
0.102083 0.29849 0.0
0.104502 0.281016 0.0
0.106524 0.26635 0.0
0.108079 0.255045 0.0
0.109016 0.248235 0.0
0.10981 0.242461 0.0
0.111306 0.231585 0.0
0.113249 0.217491 0.0
0.115538 0.200962 0.0
0.118113 0.182489 0.0
0.120937 0.162451 0.0
0.123983 0.141163 0.0
0.12723 0.118897 0.0
0.130664 0.095889 0.0
0.134276 0.0723424 0.0
0.13806 0.0484257 0.0
0.142013 0.0242758 0.0
0.146132 0 0.0
0.0665288 0.550911 0.0
0.0721119 0.519367 0.0
0.0773486 0.488827 0.0
0.0822437 0.459433 0.0
0.0868016 0.431334 0.0
0.0910259 0.404685 0.0
0.0949182 0.379647 0.0
0.0984777 0.356387 0.0
0.101699 0.335077 0.0
0.104572 0.315908 0.0
0.107075 0.299112 0.0
0.10917 0.285007 0.0
0.110783 0.274128 0.0
0.111755 0.26757 0.0
0.112579 0.262008 0.0
0.114134 0.251524 0.0
0.116154 0.237921 0.0
0.118536 0.22194 0.0
0.121219 0.20404 0.0
0.124162 0.184568 0.0
0.127338 0.163814 0.0
0.130725 0.142026 0.0
0.134308 0.119425 0.0
0.138075 0.0962022 0.0
0.142018 0.0725226 0.0
0.146133 0.0485243 0.0
0.150417 0.0243202 0.0
0.154869 0 0.0
0.0623427 0.592556 0.0
0.0683636 0.560925 0.0
0.0740373 0.530219 0.0
0.0793684 0.500555 0.0
0.084361 0.472063 0.0
0.0890187 0.444878 0.0
0.093344 0.419136 0.0
0.0973371 0.394981 0.0
0.100996 0.372559 0.0
0.104313 0.352025 0.0
0.107275 0.333555 0.0
0.10986 0.317366 0.0
0.112025 0.303765 0.0
0.113694 0.293268 0.0
0.1147 0.286938 0.0
0.115554 0.281566 0.0
0.117165 0.271435 0.0
0.119259 0.258278 0.0
0.121731 0.242799 0.0
0.124517 0.225429 0.0
0.127576 0.206492 0.0
0.130878 0.186252 0.0
0.134401 0.164941 0.0
0.138128 0.14276 0.0
0.142046 0.119891 0.0
0.146146 0.0964922 0.0
0.150423 0.0726986 0.0
0.154871 0.0486255 0.0
0.159488 0.0243674 0.0
0.164274 0 0.0
0.057838 0.634205 0.0
0.0642972 0.602501 0.0
0.0704085 0.571652 0.0
0.0761761 0.541762 0.0
0.0816041 0.51294 0.0
0.0866961 0.485305 0.0
0.0914547 0.458975 0.0
0.0958811 0.434074 0.0
0.0999744 0.410728 0.0
0.103731 0.38907 0.0
0.107141 0.36924 0.0
0.110191 0.351401 0.0
0.112855 0.335761 0.0
0.115089 0.322614 0.0
0.116813 0.312463 0.0
0.117852 0.306339 0.0
0.118734 0.301141 0.0
0.120399 0.291332 0.0
0.122566 0.278582 0.0
0.125124 0.263564 0.0
0.128009 0.246687 0.0
0.13118 0.228252 0.0
0.134605 0.208505 0.0
0.13826 0.18766 0.0
0.142127 0.165904 0.0
0.146193 0.143407 0.0
0.150447 0.120318 0.0
0.154882 0.0967689 0.0
0.159493 0.0728742 0.0
0.164276 0.0487304 0.0
0.169229 0.0244174 0.0
0.174353 0 0.0
0.0530149 0.675857 0.0
0.0599127 0.644091 0.0
0.0664621 0.613121 0.0
0.0726669 0.583036 0.0
0.0785311 0.553935 0.0
0.084058 0.525918 0.0
0.0892505 0.49909 0.0
0.0941104 0.47356 0.0
0.0986378 0.449439 0.0
0.102831 0.426838 0.0
0.106683 0.405878 0.0
0.110186 0.386689 0.0
0.113322 0.369425 0.0
0.116063 0.354283 0.0
0.118364 0.34155 0.0
0.12014 0.331714 0.0
0.121211 0.325778 0.0
0.122121 0.320738 0.0
0.123839 0.311223 0.0
0.126075 0.298846 0.0
0.128717 0.284254 0.0
0.131699 0.267835 0.0
0.134978 0.249872 0.0
0.138521 0.230596 0.0
0.142305 0.210203 0.0
0.146309 0.18887 0.0
0.150519 0.166752 0.0
0.154924 0.143993 0.0
0.159516 0.120718 0.0
0.164287 0.097039 0.0
0.169234 0.0730522 0.0
0.174354 0.0488398 0.0
0.179646 0.0244704 0.0
0.185109 0 0.0
0.0478732 0.717512 0.0
0.0552102 0.685693 0.0
0.0621982 0.654618 0.0
0.0688408 0.624367 0.0
0.0751418 0.595025 0.0
0.0811044 0.566681 0.0
0.0867316 0.539429 0.0
0.0920255 0.513363 0.0
0.0969867 0.488581 0.0
0.101615 0.465181 0.0
0.105906 0.443268 0.0
0.109854 0.422949 0.0
0.113446 0.404347 0.0
0.116666 0.387608 0.0
0.119483 0.372922 0.0
0.121849 0.360568 0.0
0.123676 0.35102 0.0
0.124779 0.345257 0.0
0.125716 0.340362 0.0
0.127485 0.331117 0.0
0.129789 0.319085 0.0
0.132512 0.304888 0.0
0.135588 0.288896 0.0
0.138972 0.271377 0.0
0.14263 0.252547 0.0
0.146538 0.232592 0.0
0.150675 0.211673 0.0
0.155027 0.189937 0.0
0.15958 0.167519 0.0
0.164325 0.144539 0.0
0.169255 0.121103 0.0
0.174365 0.0973075 0.0
0.179651 0.0732343 0.0
0.185111 0.0489543 0.0
0.190744 0.0245266 0.0
0.196549 0 0.0
0.0424131 0.759169 0.0
0.0501897 0.727304 0.0
0.0576169 0.696139 0.0
0.0646979 0.665743 0.0
0.0714364 0.636193 0.0
0.0778355 0.607567 0.0
0.0838981 0.579949 0.0
0.0896264 0.553422 0.0
0.0950218 0.528073 0.0
0.100084 0.503989 0.0
0.104812 0.481262 0.0
0.1092 0.459983 0.0
0.113242 0.440256 0.0
0.116923 0.422194 0.0
0.120225 0.405938 0.0
0.123116 0.391671 0.0
0.125546 0.379665 0.0
0.127423 0.370383 0.0
0.128556 0.364778 0.0
0.129519 0.360017 0.0
0.131338 0.351022 0.0
0.133708 0.33931 0.0
0.136511 0.325479 0.0
0.139678 0.309886 0.0
0.143163 0.292785 0.0
0.146934 0.27438 0.0
0.150963 0.254844 0.0
0.15523 0.23433 0.0
0.159719 0.212974 0.0
0.164417 0.190903 0.0
0.169313 0.16823 0.0
0.1744 0.145058 0.0
0.17967 0.12148 0.0
0.185121 0.0975779 0.0
0.190748 0.0734222 0.0
0.196551 0.0490744 0.0
0.202527 0.0245861 0.0
0.208677 0 0.0
0.0366346 0.800829 0.0
0.0448513 0.768924 0.0
0.0527181 0.737679 0.0
0.0602383 0.707158 0.0
0.0674149 0.677426 0.0
0.0742512 0.648556 0.0
0.0807499 0.62062 0.0
0.0869135 0.593693 0.0
0.0927435 0.567853 0.0
0.0982406 0.543178 0.0
0.103404 0.519748 0.0
0.10823 0.497645 0.0
0.112715 0.476956 0.0
0.116849 0.457776 0.0
0.120617 0.440213 0.0
0.124 0.424403 0.0
0.126963 0.410523 0.0
0.129455 0.398839 0.0
0.13138 0.389803 0.0
0.132544 0.384345 0.0
0.133532 0.379708 0.0
0.135399 0.370945 0.0
0.137834 0.359529 0.0
0.140714 0.346041 0.0
0.143969 0.330822 0.0
0.147554 0.314115 0.0
0.151434 0.296113 0.0
0.155581 0.27698 0.0
0.159976 0.256858 0.0
0.164599 0.235876 0.0
0.169439 0.214152 0.0
0.174483 0.191795 0.0
0.179723 0.168902 0.0
0.185153 0.145562 0.0
0.190766 0.121855 0.0
0.19656 0.097853 0.0
0.202532 0.073617 0.0
0.208679 0.0492005 0.0
0.215002 0.024649 0.0
0.221501 0 0.0
0.0305376 0.84249 0.0
0.0391951 0.810551 0.0
0.0475021 0.779237 0.0
0.0554619 0.748605 0.0
[...]
POINT_DATA 5918
SCALARS u[m/s] float
LOOKUP_TABLE default
67.3515
67.3554
67.3671
67.3866
67.4138
67.4489
67.4918
67.5425
67.6009
67.6672
67.7413
67.8231
67.9127
68.0102
68.1154
68.2285
68.3493
68.4779
68.6143
68.7585
68.9105
69.0704
69.238
69.4133
69.5965
67.3539
67.3554
67.3621
67.3612
67.3621
67.3671
67.3777
67.3741
67.3735
67.3741
67.3777
67.3866
67.4012
67.394
67.3911
67.3907
67.3911
67.394
67.4012
67.4138
67.4323
67.4214
67.4154
67.4131
67.4128
67.4131
67.4154
67.4214
67.4323
67.4489
67.4713
67.4566
67.4471
67.442
67.4401
67.4398
67.4401
67.442
67.4471
67.4566
67.4713
67.4918
67.5181
67.4995
67.4863
67.478
67.4736
67.4719
67.4717
67.4719
67.4736
67.478
67.4863
67.4995
67.5181
67.5425
67.5727
67.5502
67.5332
67.5214
67.514
67.5101
67.5087
67.5085
67.5087
67.5101
67.514
67.5214
67.5332
67.5502
67.5727
67.6009
67.635
67.6086
67.5879
67.5724
67.5617
67.5551
67.5517
67.5504
67.5502
67.5504
67.5517
67.5551
67.5617
67.5724
67.5879
67.6086
67.635
67.6672
67.7052
67.6749
67.6503
67.6311
67.6169
67.6072
67.6012
67.5981
67.597
67.5968
67.597
67.5981
67.6012
67.6072
67.6169
67.6311
67.6503
67.6749
67.7052
67.7413
67.7831
67.749
67.7205
67.6975
67.6798
67.6667
67.6578
67.6523
67.6495
67.6484
67.6483
67.6484
67.6495
67.6523
67.6578
67.6667
67.6798
67.6975
67.7205
67.749
67.7831
67.8231
67.8689
67.8308
67.7985
67.7717
67.7502
67.7337
67.7216
67.7134
67.7084
67.7058
67.7048
67.7046
67.7048
67.7058
67.7084
67.7134
67.7216
67.7337
67.7502
67.7717
67.7985
67.8308
67.8689
67.9127
67.9624
67.9205
67.8842
67.8536
67.8284
67.8083
67.7929
67.7816
67.774
67.7693
67.7669
67.766
67.7659
67.766
67.7669
67.7693
67.774
67.7816
67.7929
67.8083
67.8284
67.8536
67.8842
67.9205
67.9624
68.0102
68.0638
68.0179
67.9778
67.9433
67.9143
67.8905
67.8716
67.8572
67.8467
67.8396
67.8352
67.833
67.8322
67.832
67.8322
67.833
67.8352
67.8396
67.8467
67.8572
67.8716
67.8905
67.9143
67.9433
67.9778
68.0179
68.0638
68.1154
68.1729
68.1231
68.0791
68.0408
68.008
67.9804
67.958
67.9401
67.9266
67.9167
67.9101
67.906
67.9039
67.9032
67.903
67.9032
67.9039
67.906
67.9101
67.9167
67.9266
67.9401
67.958
67.9804
68.008
68.0408
68.0791
68.1231
68.1729
68.2285
68.2898
68.2362
68.1883
68.146
68.1094
68.0781
68.052
68.0307
68.0138
68.001
67.9918
67.9855
67.9817
67.9798
67.979
67.9789
67.979
67.9798
67.9817
67.9855
67.9918
68.001
68.0138
68.0307
68.052
68.0781
68.1094
68.146
68.1883
68.2362
68.2898
68.3493
68.4145
68.357
68.3052
68.2591
68.2185
68.1835
68.1536
68.1288
68.1086
68.0926
68.0805
68.0718
68.0659
68.0623
68.0605
68.0598
68.0597
68.0598
68.0605
68.0623
68.0659
68.0718
68.0805
68.0926
68.1086
68.1288
68.1536
68.1835
68.2185
68.2591
68.3052
68.357
68.4145
68.4779
68.5471
68.4856
68.4299
68.3799
68.3355
68.2966
68.263
68.2345
68.2108
68.1916
68.1765
68.165
68.1567
68.1512
68.1478
68.146
68.1453
68.1453
68.1453
68.146
68.1478
68.1512
68.1567
68.165
68.1765
68.1916
68.2108
68.2345
68.263
68.2966
68.3355
68.3799
68.4299
68.4856
68.5471
68.6143
68.6874
68.622
68.5624
68.5085
68.4602
68.4175
68.3801
68.3479
68.3207
68.2981
68.2797
68.2653
68.2544
68.2466
68.2413
68.2381
68.2364
68.2358
68.2357
68.2358
68.2364
68.2381
68.2413
68.2466
68.2544
68.2653
68.2797
68.2981
68.3207
68.3479
68.3801
68.4175
68.4602
68.5085
68.5624
68.622
68.6874
68.7585
68.8355
68.7662
68.7027
68.6449
68.5927
68.5461
68.505
68.469
68.4382
68.4121
68.3904
68.3729
68.3592
68.3488
68.3413
68.3363
68.3332
68.3316
68.331
68.331
68.331
68.3316
68.3332
68.3363
68.3413
68.3488
68.3592
68.3729
68.3904
68.4121
68.4382
68.469
68.505
68.5461
68.5927
68.6449
68.7027
68.7662
68.8355
68.9105
68.9914
68.9182
68.8508
68.789
68.733
68.6825
68.6375
68.5979
68.5633
68.5336
68.5086
68.4879
68.4711
68.458
68.4481
68.4409
68.4361
68.4332
68.4317
68.4311
68.4311
68.4311
68.4317
68.4332
68.4361
68.4409
68.4481
68.458
68.4711
68.4879
68.5086
68.5336
68.5633
68.5979
68.6375
68.6825
68.733
68.789
68.8508
68.9182
68.9914
69.0704
69.1551
69.078
69.0066
68.941
68.8811
68.8267
68.7779
68.7344
68.6961
68.6628
68.6343
68.6103
68.5904
68.5743
68.5618
68.5523
68.5454
68.5408
68.538
68.5366
68.5361
68.536
68.5361
68.5366
68.538
68.5408
68.5454
68.5523
68.5618
68.5743
68.5904
68.6103
68.6343
68.6628
68.6961
68.7344
68.7779
68.8267
68.8811
68.941
69.0066
69.078
69.1551
69.238
69.3266
69.2456
69.1703
69.1008
69.0369
68.9787
68.926
68.8787
68.8366
68.7997
68.7676
68.7401
68.717
68.6979
68.6825
68.6704
68.6613
68.6548
68.6504
68.6477
68.6463
68.6458
68.6457
68.6458
68.6463
68.6477
68.6504
68.6548
68.6613
68.6704
68.6825
68.6979
68.717
68.7401
68.7676
68.7997
68.8366
68.8787
68.926
68.9787
69.0369
69.1008
69.1703
69.2456
69.3266
69.4133
69.5059
69.4209
69.3418
69.2683
69.2005
69.1384
69.0818
69.0307
68.9849
68.9442
68.9085
68.8775
68.851
68.8287
68.8104
68.7956
68.784
68.7752
68.7689
68.7647
68.7621
68.7608
68.7603
68.7602
68.7603
68.7608
68.7621
68.7647
68.7689
68.7752
68.784
68.7956
68.8104
68.8287
68.851
68.8775
68.9085
68.9442
68.9849
69.0307
69.0818
69.1384
69.2005
69.2683
69.3418
69.4209
69.5059
69.5965
69.8629
69.784
69.7108
69.6432
69.5811
69.5243
69.4729
69.4266
69.3852
69.3487
69.3167
69.289
69.2654
69.2456
69.2293
69.2162
69.2059
69.1982
69.1926
69.1889
69.1867
69.1855
69.185
69.185
69.185
69.1855
69.1867
69.1889
69.1926
69.1982
69.2059
69.2162
69.2293
69.2456
69.2654
69.289
69.3167
69.3487
69.3852
69.4266
69.4729
69.5243
69.5811
69.6432
69.7108
69.784
69.8629
69.9474
70.2773
70.1282
70.0594
69.9961
69.9381
69.8853
69.8375
69.7945
69.7563
69.7226
69.6931
69.6676
69.646
69.6278
69.6129
69.6009
69.5915
69.5844
69.5794
69.576
69.5739
69.5728
69.5724
69.5724
69.5724
69.5728
69.5739
69.576
69.5794
69.5844
69.5915
69.6009
69.6129
69.6278
69.646
69.6676
69.6931
69.7226
69.7563
69.7945
69.8375
69.8853
69.9381
69.9961
70.0594
70.1282
70.2024
70.2821
70.5954
70.8997
70.3829
70.3229
70.2679
70.218
70.1729
70.1325
70.0965
70.0648
70.0372
70.0133
69.993
69.976
69.9621
69.9509
69.9421
69.9355
69.9308
69.9276
69.9257
69.9247
69.9243
69.9242
69.9243
69.9247
69.9257
69.9276
69.9308
69.9355
69.9421
69.9509
69.9621
69.976
69.993
70.0133
70.0372
70.0648
70.0965
70.1325
70.1729
70.218
70.2679
70.3229
70.3829
70.4482
70.5188
70.5948
70.8947
71.1878
71.4665
70.6389
70.5865
70.5389
70.496
70.4576
70.4234
70.3933
70.3671
70.3445
70.3253
70.3092
70.296
70.2854
70.2772
70.2709
70.2665
70.2635
70.2616
70.2607
70.2603
70.2603
70.2603
70.2607
70.2616
70.2635
70.2665
70.2709
70.2772
70.2854
70.296
70.3092
70.3253
70.3445
70.3671
70.3933
70.4234
70.4576
70.496
70.5389
70.5865
70.6389
70.6962
70.7586
70.8263
70.8992
71.1878
71.4711
71.7415
72.0091
70.886
70.8404
70.7992
70.7624
70.7297
70.7009
70.6758
70.6542
70.6359
70.6205
70.6079
70.5978
70.5899
70.5839
70.5797
70.5768
70.5751
70.5742
70.5738
70.5738
70.5738
70.5742
70.5751
70.5768
70.5797
70.5839
70.5899
70.5978
70.6079
70.6205
70.6359
70.6542
70.6758
70.7009
70.7297
70.7624
70.7992
70.8404
70.886
70.9364
70.9915
71.0516
71.1168
71.1872
71.4663
71.7413
72.0045
72.2656
72.5164
71.1331
71.0934
71.0579
71.0264
70.9987
70.9746
70.9538
70.9362
70.9214
70.9093
70.8996
70.892
70.8863
70.8822
70.8795
70.8778
70.8769
70.8766
70.8766
70.8766
70.8769
70.8778
70.8795
70.8822
70.8863
70.892
70.8996
70.9093
70.9214
70.9362
70.9538
70.9746
70.9987
71.0264
71.0579
71.0934
71.1331
71.1771
71.2257
71.2789
71.337
71.4001
71.4683
71.7392
72.0068
72.2635
72.5188
72.7644
73.0077
71.3719
71.3375
71.3071
71.2803
71.257
71.2369
71.2198
71.2056
71.1939
71.1845
71.1772
71.1717
71.1677
71.1651
71.1634
71.1626
71.1623
71.1623
71.1623
71.1626
71.1634
71.1651
71.1677
71.1717
71.1772
71.1845
71.1939
71.2056
71.2198
71.2369
71.257
71.2803
71.3071
71.3375
71.3719
71.4103
71.453
71.5001
71.5518
71.6082
71.6694
71.7357
71.9995
72.2607
72.5118
72.7619
73.0029
73.2419
73.4723
71.6071
71.5775
71.5515
71.5289
71.5094
71.4929
71.4791
71.4677
71.4586
71.4515
71.4462
71.4423
71.4398
71.4382
71.4374
71.4371
71.4371
71.4371
71.4374
71.4382
71.4398
71.4423
71.4462
71.4515
71.4586
71.4677
71.4791
71.4929
71.5094
71.5289
71.5515
71.5775
71.6071
71.6405
71.6778
71.7193
71.7651
71.8154
71.8703
71.93
71.9946
72.2521
72.5076
72.7536
72.999
73.2359
73.471
73.6979
73.9202
71.8331
71.8077
71.7857
71.7667
71.7506
71.7372
71.7261
71.7173
71.7103
71.7051
71.7014
71.6989
71.6974
71.6966
71.6963
71.6963
71.6963
71.6966
71.6974
71.6989
71.7014
71.7051
71.7103
71.7173
71.7261
71.7372
71.7506
71.7667
71.7857
71.8077
71.8331
71.8619
71.8944
71.9308
71.9713
72.016
72.0651
72.1187
72.177
72.2402
72.4922
72.7427
72.9842
73.2255
73.4586
73.6902
73.9139
74.1333
74.3437
72.0528
72.0313
72.0128
71.997
71.9839
71.9731
71.9645
71.9577
71.9527
71.949
71.9466
71.9451
71.9443
71.944
71.944
71.944
71.9443
71.9451
71.9466
71.949
71.9527
71.9577
71.9645
71.9731
71.9839
71.997
72.0128
72.0313
72.0528
72.0776
72.1057
72.1375
72.1731
72.2127
72.2564
72.3045
72.357
72.4141
72.4759
72.7231
72.969
73.2066
73.444
73.6737
73.9022
74.123
74.3397
74.5477
74.7494
72.2697
72.2516
72.2362
72.2234
72.2128
72.2044
72.1978
72.1928
72.1893
72.1869
72.1854
72.1847
72.1844
72.1843
72.1844
72.1847
72.1854
72.1869
72.1893
72.1928
72.1978
72.2044
72.2128
72.2234
72.2362
72.2516
72.2697
72.2908
72.315
72.3426
72.3738
72.4086
72.4474
72.4902
72.5373
72.5888
72.6448
72.7055
72.9482
73.1901
73.4239
73.658
73.8845
74.11
74.3281
74.5423
74.748
74.9476
75.1439
72.4785
72.4635
72.4509
72.4405
72.4322
72.4258
72.4209
72.4174
72.4151
72.4136
72.4129
72.4126
72.4126
72.4126
72.4129
72.4136
72.4151
72.4174
72.4209
72.4258
72.4322
72.4405
72.4509
72.4635
72.4785
72.4963
72.517
72.5408
72.5678
72.5984
72.6326
72.6707
72.7127
72.759
72.8096
72.8646
72.9243
73.163
73.4012
73.6317
73.8626
74.0863
74.3091
74.5248
74.7367
74.9403
75.138
75.3325
75.5194
72.679
72.6666
72.6564
72.6483
72.6419
72.6371
72.6337
72.6314
72.63
72.6293
72.629
72.629
72.629
72.6293
72.63
72.6314
72.6337
72.6371
72.6419
72.6483
72.6564
72.6666
72.679
72.6938
72.7112
72.7316
72.7549
72.7815
72.8116
72.8452
72.8826
72.924
72.9695
73.0193
73.0735
73.1322
73.3674
73.6024
73.8299
74.0579
74.2791
74.4994
74.7128
74.9227
75.1244
75.3203
75.5131
75.6985
75.8762
72.874
72.864
72.856
72.8497
72.845
72.8417
72.8394
72.838
72.8373
72.837
72.837
72.837
72.8373
72.838
72.8394
72.8417
72.845
72.8497
72.856
72.864
72.874
72.8862
72.9008
72.9179
72.9379
72.9609
72.9871
73.0167
73.0498
73.0867
73.1275
73.1723
73.2213
73.2747
73.3326
73.5646
73.7965
74.0213
74.2468
74.4655
74.6836
74.895
75.1029
75.3028
75.4971
75.6883
75.8723
76.0487
76.2199
73.0612
73.0533
73.0472
73.0425
73.0392
73.037
73.0356
73.0349
73.0347
73.0346
73.0347
73.0349
73.0356
73.037
73.0392
73.0425
73.0472
73.0533
73.0612
73.0711
73.0831
73.0975
73.1144
73.1341
73.1568
73.1826
73.2117
73.2444
73.2808
73.321
73.3652
73.4136
73.4663
73.5234
73.7525
73.9817
74.204
74.4271
74.6437
74.8597
75.0692
75.2753
75.4736
75.6664
75.8562
76.0388
76.214
76.3841
76.5473
73.238
73.232
73.2274
73.2241
73.2219
73.2206
73.2199
73.2196
73.2196
73.2196
73.2199
73.2206
73.2219
73.2241
73.2274
73.232
73.238
73.2458
73.2555
73.2674
73.2816
73.2983
73.3177
73.3401
73.3656
73.3944
73.4266
73.4625
73.5023
73.5459
73.5937
73.6458
73.7023
73.9288
74.1556
74.3756
74.5966
74.8112
75.0254
75.2331
75.4377
75.6345
75.8259
76.0144
76.1958
76.3699
76.539
76.7012
76.8542
73.4022
73.3977
73.3945
73.3923
73.391
73.3903
73.39
73.39
73.39
73.3903
73.391
73.3923
73.3945
73.3977
73.4022
73.4082
73.4159
73.4255
73.4372
73.4513
73.4678
73.487
73.5091
73.5343
73.5628
73.5947
73.6302
73.6695
73.7127
73.76
73.8115
73.8674
74.0916
74.3162
74.5342
74.7533
74.9662
75.1788
75.385
75.5881
75.7836
75.9737
76.1611
76.3415
76.5145
76.6827
76.844
76.9963
77.1377
73.5593
73.556
73.5539
73.5526
73.5519
73.5517
73.5516
73.5517
73.5519
73.5526
73.5539
73.556
73.5593
73.5637
73.5697
73.5773
73.5868
73.5984
73.6122
73.6286
73.6476
73.6695
73.6944
73.7226
73.7542
73.7893
73.8282
73.871
73.9178
73.9688
74.0241
74.2463
74.4689
74.6852
74.9025
75.1138
75.3248
75.5296
75.7314
75.9257
76.1147
76.301
76.4804
76.6525
76.8199
76.9804
77.1319
77.2726
77.407
73.7039
73.7017
73.7004
73.6998
73.6995
73.6995
73.6995
73.6998
73.7004
73.7017
73.7039
73.707
73.7115
73.7174
73.7249
73.7343
73.7458
73.7595
73.7757
73.7946
73.8162
73.8409
73.8688
73.9001
73.935
73.9735
74.0159
74.0623
74.1129
74.1678
74.3881
74.6089
74.8236
75.0394
75.2493
75.459
75.6625
75.8631
76.0563
76.2443
76.4297
76.6081
76.7795
76.946
77.1059
77.2567
77.3969
77.5307
77.6539
73.8334
73.8321
73.8315
73.8312
73.8312
73.8312
73.8315
73.8321
73.8334
73.8355
73.8387
73.8431
73.8489
73.8564
73.8657
73.8771
73.8907
73.9068
73.9255
73.947
73.9715
73.9992
74.0302
74.0648
74.103
74.1451
74.1911
74.2413
74.2958
74.5146
74.7339
74.9472
75.1617
75.3703
75.5788
75.7813
75.9809
76.1731
76.3603
76.5448
76.7225
76.8931
77.059
77.2182
77.3685
77.5081
77.6415
77.7643
77.8743
73.9505
73.9498
73.9496
73.9495
73.9496
73.9498
73.9505
73.9518
73.9539
73.957
73.9613
73.9671
73.9746
73.9838
73.9951
74.0087
74.0246
74.0432
74.0645
74.0888
74.1163
74.1471
74.1815
74.2194
74.2612
74.307
74.3568
74.411
74.6283
74.8464
75.0584
75.2718
75.4793
75.6868
75.8883
76.087
76.2784
76.4648
76.6485
76.8256
76.9956
77.1609
77.3195
77.4694
77.6085
77.7415
77.8639
77.9735
78.0725
74.0493
74.0491
74.0491
74.0491
74.0493
74.05
74.0513
74.0533
74.0564
74.0608
74.0665
74.0739
74.0831
74.0944
74.1078
74.1237
74.1421
74.1633
74.1875
74.2149
74.2455
74.2796
74.3174
74.3589
74.4044
74.454
74.5079
74.7241
74.9411
75.1521
75.3645
75.5711
75.7778
75.9785
76.1765
76.3672
76.5529
76.7361
76.9126
77.082
77.2469
77.4051
77.5545
77.6933
77.8259
77.948
78.0574
78.1561
78.2395
74.1233
74.1232
74.1233
74.1235
74.1242
74.1254
74.1275
74.1306
74.1349
74.1406
74.148
74.1572
74.1684
74.1817
74.1975
74.2159
74.237
74.2611
74.2883
74.3188
74.3528
74.3904
74.4318
74.4771
74.5265
74.5801
74.7955
75.0117
75.222
75.4337
75.6397
75.8458
76.0459
76.2433
76.4336
76.6188
76.8015
76.9776
77.1467
77.3111
77.469
77.6181
77.7566
77.889
78.0109
78.12
78.2186
78.3019
78.3641
74.1706
74.1706
74.1709
74.1715
74.1728
74.1749
74.178
74.1823
74.188
74.1953
74.2044
74.2156
74.229
74.2447
74.263
74.2841
74.3081
74.3353
74.3657
74.3996
74.4371
74.4784
74.5236
74.5728
74.6263
74.8412
75.0569
75.2667
75.478
75.6836
75.8892
76.089
76.2861
76.476
76.6609
76.8434
77.0192
77.188
77.3522
77.5099
77.6588
77.7972
77.9294
78.0511
78.1602
78.2586
78.3418
78.404
78.4438
74.2117
74.212
74.2126
74.2139
74.216
74.219
74.2233
74.229
74.2363
74.2455
74.2566
74.2699
74.2856
74.3039
74.3249
74.3489
74.376
74.4063
74.4401
74.4776
74.5187
74.5639
74.613
74.6664
74.8808
75.0961
75.3055
75.5164
75.7216
75.9269
76.1264
76.3232
76.5129
76.6975
76.8797
77.0553
77.2239
77.388
77.5454
77.6942
77.8324
77.9645
78.0861
78.195
78.2934
78.3765
78.4386
78.4784
78.5129
74.288
74.2887
74.2899
74.292
74.295
74.2993
74.305
74.3123
74.3214
74.3324
74.3457
74.3613
74.3795
74.4005
74.4243
74.4513
74.4815
74.5152
74.5525
74.5935
74.6384
74.6874
74.7405
74.9542
75.1687
75.3774
75.5876
75.7921
75.9968
76.1957
76.392
76.5811
76.7653
76.9471
77.1222
77.2905
77.4542
77.6113
77.7598
77.8977
78.0295
78.1509
78.2596
78.3578
78.4408
78.5028
78.5425
78.577
78.641
74.3845
74.3858
74.3878
74.3909
74.3951
74.4008
74.408
74.4171
74.4281
74.4413
74.4568
74.4749
74.4958
74.5195
74.5463
74.5764
74.6099
74.647
74.6878
74.7325
74.7812
74.8341
75.0467
75.2602
75.4681
75.6774
75.8812
76.0851
76.2833
76.4789
76.6674
76.851
77.0322
77.2069
77.3747
77.5379
77.6946
77.8427
77.9803
78.1118
78.2329
78.3414
78.4394
78.5221
78.584
78.6236
78.658
78.7219
78.8026
74.5047
74.5068
74.5098
74.514
74.5196
74.5268
74.5358
74.5468
74.5599
74.5753
74.5933
74.614
74.6376
74.6643
74.6941
74.7274
74.7643
74.8048
74.8493
74.8977
74.9503
75.1617
75.374
75.5808
75.789
75.9919
76.1948
76.3922
76.5869
76.7747
76.9576
77.1381
77.3122
77.4794
77.6421
77.7983
77.9459
78.0831
78.2142
78.3349
78.4431
78.5409
78.6234
78.6851
78.7246
78.759
78.8226
78.9032
79.0035
74.6387
74.6417
74.6459
74.6515
74.6586
74.6675
74.6784
74.6914
74.7068
74.7246
74.7452
74.7686
74.7951
74.8248
74.8578
74.8944
74.9347
74.9789
75.027
75.0792
75.2893
75.5004
75.7059
75.9131
76.1149
76.3168
76.5132
76.7071
76.894
77.0762
77.256
77.4293
77.5959
77.758
77.9137
78.0608
78.1975
78.3282
78.4486
78.5565
78.6539
78.7362
78.7978
78.8372
78.8714
78.9349
79.0152
79.1153
79.2267
74.7899
74.7941
74.7996
74.8067
74.8155
74.8263
74.8392
74.8545
74.8722
74.8926
74.9158
74.9421
74.9716
75.0044
75.0407
75.0807
75.1245
75.1723
75.2242
75.4328
75.6425
75.8468
76.0527
76.2533
76.4542
76.6496
76.8425
77.0285
77.2098
77.3888
77.5614
77.7273
77.8888
78.0439
78.1904
78.3267
78.4569
78.5769
78.6844
78.7815
78.8635
78.9249
78.9642
78.9983
79.0616
79.1417
79.2414
79.3526
79.4781
74.9523
74.9578
74.9648
74.9736
74.9843
74.9971
75.0122
75.0298
75.05
75.0731
75.0992
75.1284
75.161
75.197
75.2367
75.2802
75.3276
75.3791
75.5863
75.7946
75.9975
76.2022
76.4016
76.6013
76.7956
76.9875
77.1726
77.3531
77.5312
77.7031
77.8682
78.029
78.1835
78.3295
78.4652
78.5949
78.7145
78.8216
78.9184
79.0001
79.0613
79.1005
79.1345
79.1976
79.2774
79.3769
79.4877
79.6128
79.7472
75.1326
75.1395
75.1482
75.1588
75.1715
75.1865
75.204
75.224
75.2469
75.2728
75.3018
75.3341
75.3698
75.4092
75.4523
75.4994
75.5505
75.756
75.9628
76.1643
76.3676
76.5658
76.7643
76.9575
77.1482
77.3324
77.5119
77.6891
77.8601
78.0245
78.1846
78.3384
78.4838
78.6189
78.7482
78.8672
78.974
79.0704
79.1519
79.2128
79.2518
79.2857
79.3486
79.4282
79.5273
79.6378
79.7625
79.8965
80.0453
75.3214
75.33
75.3406
75.3532
75.368
75.3853
75.4052
75.4279
75.4535
75.4823
75.5143
75.5498
75.5888
75.6316
75.6783
75.729
75.933
76.1382
76.3383
76.5402
76.7371
76.9344
77.1264
77.3161
77.4992
77.6778
77.8541
78.0243
78.1879
78.3472
78.5004
78.6451
78.7797
78.9084
79.0271
79.1334
79.2295
79.3106
79.3713
79.4102
79.444
79.5067
79.586
79.6848
79.7949
79.9192
80.0528
80.2012
80.3566
75.525
75.5355
75.5479
75.5627
75.5798
75.5995
75.622
75.6474
75.6759
75.7077
75.7428
75.7816
75.824
75.8703
75.9206
76.1229
76.3266
76.5253
76.7257
76.9213
77.1173
77.3081
77.4967
77.6788
77.8563
78.0318
78.2011
78.3639
78.5225
78.6749
78.819
78.953
79.0812
79.1993
79.3052
79.4009
79.4818
79.5423
79.581
79.6147
79.6771
79.7561
79.8546
79.9643
80.0883
80.2214
80.3693
80.5243
80.6915
75.7417
75.754
75.7686
75.7856
75.8052
75.8274
75.8526
75.8809
75.9124
75.9472
75.9856
76.0277
76.0736
76.1234
76.3241
76.5262
76.7234
76.9224
77.1166
77.3114
77.501
77.6884
77.8694
78.046
78.2204
78.3889
78.5509
78.7087
78.8604
79.0038
79.1372
79.2649
79.3825
79.488
79.5833
79.6639
79.7241
79.7627
79.7963
79.8585
79.9372
80.0353
80.1447
80.2682
80.4009
80.5484
80.7029
80.8696
81.0472
75.9676
75.9821
75.9989
76.0183
76.0404
76.0654
76.0934
76.1246
76.1591
76.1972
76.2389
76.2844
76.3338
76.5329
76.7334
76.9291
77.1267
77.3196
77.513
77.7014
77.8877
78.0677
78.2432
78.4168
78.5843
78.7455
78.9025
79.0535
79.1963
79.3291
79.4562
79.5734
79.6784
79.7734
79.8536
79.9136
79.9521
79.9855
80.0475
80.1259
80.2237
80.3327
80.4558
80.588
80.7351
80.8891
81.0554
81.2325
81.4173
76.2042
76.2209
76.2401
76.262
76.2868
76.3145
76.3454
76.3797
76.4174
76.4588
76.5039
76.5529
76.7504
76.9493
77.1435
77.3397
77.5313
77.7234
77.9106
78.0958
78.2747
78.4492
78.6218
78.7885
78.9488
79.1051
79.2554
79.3975
79.5298
79.6563
79.773
79.8776
79.9722
80.0521
80.1119
80.1502
80.1835
80.2453
80.3234
80.4208
80.5294
80.6521
80.784
80.9305
81.0841
81.2499
81.4266
81.6109
81.8041
76.4566
76.4756
76.4973
76.5218
76.5493
76.58
76.6139
76.6513
76.6923
76.7371
76.7857
76.9815
77.1788
77.3716
77.5663
77.7565
77.9474
78.1334
78.3173
78.4951
78.6687
78.8403
79.0061
79.1656
79.3211
79.4707
79.6122
79.7438
79.8698
79.986
80.0902
80.1844
80.264
80.3236
80.3617
80.3949
80.4564
80.5343
80.6313
80.7396
80.8618
80.9933
81.1394
81.2925
81.4578
81.634
81.8179
82.0106
82.2166
76.7186
76.7401
76.7644
76.7917
76.8221
76.8557
76.8928
76.9334
76.9778
77.026
77.2202
77.416
77.6073
77.8006
77.9895
78.179
78.3638
78.5467
78.7234
78.896
79.0667
79.2316
79.3903
79.545
79.6938
79.8347
79.9658
80.0912
80.2069
80.3107
80.4045
80.4838
80.5431
80.5812
80.6142
80.6755
80.7531
80.8498
80.9577
81.0796
81.2105