TITLE = "Visualization of the solution"
VARIABLES = "x","y","Density","Momentum_x","Momentum_y","Energy","Pressure","Temperature","Mach","Pressure_Coefficient"
ZONE NODES= 10464, ELEMENTS= 20328, DATAPACKING=POINT, ZONETYPE=FEQUADRILATERAL
6.140019e+00	1.806533e+00	1.118341e+01	2.826094e+03	2.824336e+01	5.424156e+06	2.158121e+05	3.239052e+02	1.787540e+00	-1.841478e+18	
-3.974393e+00	4.979326e+00	6.206786e+01	2.228959e+02	-1.662562e+00	3.015607e+07	1.146234e+06	3.783333e+02	2.814301e-02	-9.219334e+14	
-2.714744e+00	1.452213e+00	6.049728e+01	1.617579e+03	-7.116394e+02	2.938974e+07	1.120563e+06	3.774063e+02	2.280548e-01	-5.170369e+16	
-2.702828e+00	1.418557e+00	6.045017e+01	1.645212e+03	-7.103149e+02	2.936676e+07	1.119790e+06	3.773782e+02	2.314097e-01	-5.323256e+16	
-2.683298e+00	1.381947e+00	6.039141e+01	1.677399e+03	-7.127960e+02	2.933809e+07	1.118826e+06	3.773432e+02	2.355524e-01	-5.514029e+16	
-2.704566e+00	1.342809e+00	6.037640e+01	1.697349e+03	-6.845550e+02	2.933077e+07	1.118580e+06	3.773342e+02	2.365887e-01	-5.562769e+16	
-2.661060e+00	1.345909e+00	6.032846e+01	1.710403e+03	-7.163754e+02	2.930737e+07	1.117792e+06	3.773055e+02	2.398763e-01	-5.718470e+16	
-2.635879e+00	1.313194e+00	6.026425e+01	1.742601e+03	-7.223435e+02	2.927604e+07	1.116738e+06	3.772671e+02	2.442403e-01	-5.927058e+16	
-2.648607e+00	1.276170e+00	6.024376e+01	1.763136e+03	-6.990529e+02	2.926605e+07	1.116401e+06	3.772549e+02	2.456426e-01	-5.993642e+16	
-2.692201e+00	1.294112e+00	6.031417e+01	1.734562e+03	-6.758538e+02	2.930040e+07	1.117558e+06	3.772970e+02	2.408584e-01	-5.764889e+16	
-2.608823e+00	1.283651e+00	6.019904e+01	1.773890e+03	-7.300138e+02	2.924423e+07	1.115667e+06	3.772281e+02	2.485940e-01	-6.138970e+16	
-2.761992e+00	1.638326e+00	6.073250e+01	1.469197e+03	-7.200865e+02	2.950450e+07	1.124420e+06	3.775464e+02	2.104469e-01	-4.407416e+16	
-2.746106e+00	1.596051e+00	6.067538e+01	1.504115e+03	-7.238800e+02	2.947664e+07	1.123484e+06	3.775124e+02	2.148727e-01	-4.592588e+16	
-2.724545e+00	1.558616e+00	6.061685e+01	1.536931e+03	-7.320244e+02	2.944809e+07	1.122524e+06	3.774776e+02	2.193164e-01	-4.782425e+16	
-2.701381e+00	1.531981e+00	6.056587e+01	1.562516e+03	-7.432631e+02	2.942321e+07	1.121688e+06	3.774472e+02	2.230753e-01	-4.947803e+16	
-2.740741e+00	1.515312e+00	6.058792e+01	1.564922e+03	-7.093879e+02	2.943397e+07	1.122050e+06	3.774604e+02	2.214480e-01	-4.876260e+16	
-2.698657e+00	1.492951e+00	6.052209e+01	1.592322e+03	-7.350424e+02	2.940185e+07	1.120970e+06	3.774211e+02	2.262451e-01	-5.089844e+16	
-2.747540e+00	1.469670e+00	6.054860e+01	1.595963e+03	-6.925966e+02	2.941479e+07	1.121405e+06	3.774369e+02	2.243520e-01	-5.003819e+16	
-2.674533e+00	1.457194e+00	6.045878e+01	1.625753e+03	-7.430065e+02	2.937096e+07	1.119932e+06	3.773834e+02	2.307994e-01	-5.295310e+16	
-2.748081e+00	1.424868e+00	6.050426e+01	1.627310e+03	-6.797385e+02	2.939315e+07	1.120678e+06	3.774105e+02	2.275642e-01	-5.147710e+16	
-2.655353e+00	1.422731e+00	6.040105e+01	1.657164e+03	-7.467364e+02	2.934280e+07	1.118984e+06	3.773489e+02	2.348835e-01	-5.482730e+16	
-2.738387e+00	1.374461e+00	6.044425e+01	1.664786e+03	-6.713724e+02	2.936387e+07	1.119693e+06	3.773747e+02	2.318246e-01	-5.342474e+16	
-2.634801e+00	1.388495e+00	6.034051e+01	1.689182e+03	-7.506493e+02	2.931326e+07	1.117990e+06	3.773127e+02	2.390717e-01	-5.679338e+16	
-2.612496e+00	1.355410e+00	6.027792e+01	1.721352e+03	-7.553540e+02	2.928272e+07	1.116962e+06	3.772753e+02	2.433396e-01	-5.882660e+16	
-2.673764e+00	1.245092e+00	6.024405e+01	1.773834e+03	-6.697195e+02	2.926618e+07	1.116406e+06	3.772550e+02	2.455627e-01	-5.992698e+16	
-2.745262e+00	1.318575e+00	6.039673e+01	1.699796e+03	-6.485806e+02	2.934067e+07	1.118913e+06	3.773463e+02	2.351166e-01	-5.496783e+16	
-2.588606e+00	1.323886e+00	6.021321e+01	1.753448e+03	-7.609103e+02	2.925114e+07	1.115900e+06	3.772366e+02	2.476629e-01	-6.092913e+16	
-2.629328e+00	1.244729e+00	6.018754e+01	1.792001e+03	-6.996880e+02	2.923861e+07	1.115478e+06	3.772212e+02	2.493508e-01	-6.176378e+16	
-2.714484e+00	1.244754e+00	6.029318e+01	1.758432e+03	-6.427353e+02	2.929017e+07	1.117213e+06	3.772844e+02	2.423065e-01	-5.833074e+16	
-2.749555e+00	1.266986e+00	6.035329e+01	1.731626e+03	-6.279700e+02	2.931949e+07	1.118200e+06	3.773204e+02	2.381897e-01	-5.637840e+16	
-2.563823e+00	1.292889e+00	6.014642e+01	1.786058e+03	-7.664489e+02	2.921856e+07	1.114802e+06	3.771966e+02	2.520660e-01	-6.310013e+16	
-2.582949e+00	1.250890e+00	6.013047e+01	1.807509e+03	-7.346196e+02	2.921077e+07	1.114540e+06	3.771870e+02	2.530994e-01	-6.361894e+16	
-2.537694e+00	1.262511e+00	6.007680e+01	1.819359e+03	-7.723013e+02	2.918459e+07	1.113658e+06	3.771548e+02	2.565905e-01	-6.536390e+16	
-2.511690e+00	1.240358e+00	6.001369e+01	1.847292e+03	-7.810626e+02	2.915380e+07	1.112620e+06	3.771170e+02	2.606076e-01	-6.741664e+16	
-2.793024e+00	1.841812e+00	6.096217e+01	1.310046e+03	-7.224096e+02	2.961657e+07	1.128182e+06	3.776827e+02	1.918016e-01	-3.663248e+16	
-2.784207e+00	1.814847e+00	6.092932e+01	1.331490e+03	-7.271044e+02	2.960055e+07	1.127644e+06	3.776633e+02	1.945909e-01	-3.769628e+16	
-2.793478e+00	1.781254e+00	6.090227e+01	1.356320e+03	-7.165784e+02	2.958735e+07	1.127201e+06	3.776472e+02	1.968323e-01	-3.857245e+16	
-2.763455e+00	1.764153e+00	6.086213e+01	1.372862e+03	-7.380547e+02	2.956776e+07	1.126544e+06	3.776234e+02	2.001143e-01	-3.987278e+16	
-2.793963e+00	1.739320e+00	6.086069e+01	1.388057e+03	-7.113081e+02	2.956706e+07	1.126520e+06	3.776225e+02	2.002496e-01	-3.991946e+16	
-2.734242e+00	1.706485e+00	6.077881e+01	1.421633e+03	-7.532307e+02	2.952710e+07	1.125179e+06	3.775739e+02	2.067977e-01	-4.257276e+16	
-2.781377e+00	1.687691e+00	6.079899e+01	1.428742e+03	-7.136376e+02	2.953695e+07	1.125510e+06	3.775859e+02	2.052233e-01	-4.191875e+16	
-2.752067e+00	1.733250e+00	6.082193e+01	1.398278e+03	-7.430514e+02	2.954815e+07	1.125885e+06	3.775995e+02	2.034093e-01	-4.117531e+16	
-2.803463e+00	1.640436e+00	6.076961e+01	1.460198e+03	-6.892274e+02	2.952262e+07	1.125028e+06	3.775684e+02	2.075748e-01	-4.287120e+16	
-2.729100e+00	1.673142e+00	6.074024e+01	1.448441e+03	-7.518328e+02	2.950829e+07	1.124547e+06	3.775510e+02	2.098798e-01	-4.382310e+16	
-2.714573e+00	1.634668e+00	6.068628e+01	1.481044e+03	-7.561668e+02	2.948196e+07	1.123663e+06	3.775189e+02	2.140254e-01	-4.557263e+16	
-2.794995e+00	1.600644e+00	6.072309e+01	1.490842e+03	-6.881512e+02	2.949993e+07	1.124266e+06	3.775408e+02	2.112242e-01	-4.437910e+16	
-2.678618e+00	1.564205e+00	6.057628e+01	1.543653e+03	-7.689634e+02	2.942829e+07	1.121859e+06	3.774534e+02	2.223065e-01	-4.914040e+16	
-2.781066e+00	1.549072e+00	6.065944e+01	1.531044e+03	-6.876005e+02	2.946887e+07	1.123223e+06	3.775029e+02	2.160951e-01	-4.644278e+16	
-2.697298e+00	1.597768e+00	6.063128e+01	1.513305e+03	-7.620336e+02	2.945513e+07	1.122761e+06	3.774862e+02	2.182393e-01	-4.735615e+16	
-2.788827e+00	1.492601e+00	6.061044e+01	1.569212e+03	-6.687754e+02	2.944496e+07	1.122419e+06	3.774738e+02	2.197774e-01	-4.803203e+16	
-2.662777e+00	1.530834e+00	6.052367e+01	1.573429e+03	-7.729450e+02	2.940262e+07	1.120996e+06	3.774221e+02	2.261423e-01	-5.084726e+16	
-2.646572e+00	1.496200e+00	6.046840e+01	1.604581e+03	-7.760157e+02	2.937565e+07	1.120089e+06	3.773891e+02	2.301079e-01	-5.264106e+16	
-2.791603e+00	1.443105e+00	6.056453e+01	1.602690e+03	-6.541623e+02	2.942256e+07	1.121666e+06	3.774464e+02	2.231781e-01	-4.952136e+16	
-2.627207e+00	1.462264e+00	6.040974e+01	1.636463e+03	-7.809068e+02	2.934704e+07	1.119127e+06	3.773541e+02	2.342859e-01	-5.454535e+16	
-2.790689e+00	1.393924e+00	6.051583e+01	1.636063e+03	-6.411825e+02	2.939880e+07	1.120868e+06	3.774174e+02	2.267074e-01	-5.110145e+16	
-2.607532e+00	1.429018e+00	6.034957e+01	1.668308e+03	-7.853472e+02	2.931768e+07	1.118139e+06	3.773181e+02	2.384530e-01	-5.649918e+16	
-2.586855e+00	1.396341e+00	6.028809e+01	1.700413e+03	-7.898862e+02	2.928769e+07	1.117130e+06	3.772814e+02	2.426741e-01	-5.849618e+16	
-2.790656e+00	1.342868e+00	6.046742e+01	1.669466e+03	-6.260592e+02	2.937517e+07	1.120073e+06	3.773885e+02	2.301903e-01	-5.267281e+16	
-2.565125e+00	1.364501e+00	6.022415e+01	1.732698e+03	-7.946377e+02	2.925648e+07	1.116079e+06	3.772431e+02	2.469500e-01	-6.057380e+16	
-2.653571e+00	1.205053e+00	6.018061e+01	1.807890e+03	-6.668833e+02	2.923523e+07	1.115364e+06	3.772170e+02	2.497918e-01	-6.198918e+16	
-2.701104e+00	1.205729e+00	6.024057e+01	1.788127e+03	-6.363410e+02	2.926449e+07	1.116349e+06	3.772529e+02	2.458246e-01	-6.004037e+16	
-2.793273e+00	1.291527e+00	6.042145e+01	1.701286e+03	-6.080805e+02	2.935274e+07	1.119319e+06	3.773611e+02	2.334016e-01	-5.416513e+16	
-2.542387e+00	1.333356e+00	6.015875e+01	1.765284e+03	-7.995448e+02	2.922458e+07	1.115005e+06	3.772040e+02	2.512885e-01	-6.269947e+16	
-2.604662e+00	1.207429e+00	6.011767e+01	1.827357e+03	-7.005414e+02	2.920452e+07	1.114330e+06	3.771793e+02	2.539170e-01	-6.403510e+16	
-2.518991e+00	1.302941e+00	6.009115e+01	1.798118e+03	-8.043243e+02	2.919160e+07	1.113894e+06	3.771634e+02	2.556714e-01	-6.489719e+16	
-2.753317e+00	1.212077e+00	6.030660e+01	1.764239e+03	-6.057334e+02	2.929670e+07	1.117433e+06	3.772924e+02	2.413693e-01	-5.789519e+16	
-2.796019e+00	1.241631e+00	6.037845e+01	1.731091e+03	-5.896133e+02	2.933175e+07	1.118613e+06	3.773354e+02	2.363949e-01	-5.556161e+16	
-2.800512e+00	1.198922e+00	6.034498e+01	1.754953e+03	-5.719151e+02	2.931542e+07	1.118063e+06	3.773154e+02	2.387112e-01	-5.664861e+16	
-2.495425e+00	1.274110e+00	6.002398e+01	1.830327e+03	-8.090946e+02	2.915883e+07	1.112789e+06	3.771231e+02	2.599917e-01	-6.708182e+16	
-2.473785e+00	1.244430e+00	5.995674e+01	1.862709e+03	-8.111259e+02	2.912602e+07	1.111683e+06	3.770828e+02	2.642039e-01	-6.926961e+16	
-2.498825e+00	1.207166e+00	5.995925e+01	1.877103e+03	-7.742746e+02	2.912725e+07	1.111725e+06	3.770843e+02	2.640472e-01	-6.918785e+16	
-2.549547e+00	1.214274e+00	6.004518e+01	1.847752e+03	-7.416502e+02	2.916916e+07	1.113138e+06	3.771358e+02	2.585956e-01	-6.639252e+16	
-2.450997e+00	1.210980e+00	5.988282e+01	1.898724e+03	-8.111747e+02	2.908996e+07	1.110467e+06	3.770383e+02	2.687908e-01	-7.167519e+16	
-2.838587e+00	2.003159e+00	6.114396e+01	1.185633e+03	-6.926201e+02	2.970527e+07	1.131157e+06	3.777904e+02	1.755965e-01	-3.074765e+16	
-2.848033e+00	1.962783e+00	6.111207e+01	1.215853e+03	-6.853535e+02	2.968972e+07	1.130635e+06	3.777715e+02	1.785654e-01	-3.177956e+16	
-2.823899e+00	1.869925e+00	6.101039e+01	1.286563e+03	-7.004335e+02	2.964011e+07	1.128971e+06	3.777113e+02	1.876805e-01	-3.507098e+16	
-2.777049e+00	1.871247e+00	6.098015e+01	1.288326e+03	-7.369652e+02	2.962535e+07	1.128476e+06	3.776934e+02	1.902396e-01	-3.604988e+16	
-2.835333e+00	1.923648e+00	6.106826e+01	1.245500e+03	-6.941506e+02	2.966834e+07	1.129918e+06	3.777456e+02	1.825362e-01	-3.319774e+16	
-2.826700e+00	1.812632e+00	6.095630e+01	1.329413e+03	-6.941086e+02	2.961371e+07	1.128086e+06	3.776793e+02	1.922894e-01	-3.682256e+16	
-2.754351e+00	1.798099e+00	6.088976e+01	1.347389e+03	-7.490527e+02	2.958124e+07	1.126996e+06	3.776398e+02	1.978454e-01	-3.897770e+16	
-2.835053e+00	1.760380e+00	6.091130e+01	1.367436e+03	-6.826426e+02	2.959175e+07	1.127349e+06	3.776526e+02	1.960866e-01	-3.828011e+16	
-2.715805e+00	1.733286e+00	6.079142e+01	1.403328e+03	-7.720054e+02	2.953326e+07	1.125386e+06	3.775814e+02	2.058373e-01	-4.216420e+16	
-2.835262e+00	1.711261e+00	6.086340e+01	1.403508e+03	-6.764425e+02	2.956838e+07	1.126565e+06	3.776241e+02	2.000257e-01	-3.983169e+16	
-2.837455e+00	1.662379e+00	6.081788e+01	1.438653e+03	-6.677028e+02	2.954618e+07	1.125819e+06	3.775971e+02	2.037550e-01	-4.130668e+16	
-2.689406e+00	1.667175e+00	6.069698e+01	1.460271e+03	-7.824739e+02	2.948718e+07	1.123838e+06	3.775253e+02	2.131937e-01	-4.522552e+16	
-2.839466e+00	1.615468e+00	6.077341e+01	1.471863e+03	-6.583985e+02	2.952447e+07	1.125090e+06	3.775707e+02	2.072713e-01	-4.274786e+16	
-2.656666e+00	1.597438e+00	6.058894e+01	1.522766e+03	-7.944143e+02	2.943446e+07	1.122067e+06	3.774610e+02	2.213585e-01	-4.872968e+16	
-2.835541e+00	1.567530e+00	6.072356e+01	1.506418e+03	-6.521059e+02	2.950015e+07	1.124274e+06	3.775411e+02	2.111592e-01	-4.436386e+16	
-2.833945e+00	1.516388e+00	6.067313e+01	1.542200e+03	-6.423799e+02	2.947555e+07	1.123447e+06	3.775111e+02	2.150595e-01	-4.599883e+16	
-2.622580e+00	1.530787e+00	6.047825e+01	1.584423e+03	-8.049598e+02	2.938046e+07	1.120251e+06	3.773950e+02	2.294041e-01	-5.232123e+16	
-2.835623e+00	1.465204e+00	6.062533e+01	1.576533e+03	-6.292770e+02	2.945223e+07	1.122664e+06	3.774826e+02	2.186623e-01	-4.754882e+16	
-2.836367e+00	1.415322e+00	6.057861e+01	1.609395e+03	-6.161179e+02	2.942943e+07	1.121897e+06	3.774548e+02	2.221340e-01	-4.906450e+16	
-2.585642e+00	1.464731e+00	6.036062e+01	1.647913e+03	-8.145662e+02	2.932307e+07	1.118320e+06	3.773247e+02	2.376822e-01	-5.614028e+16	
-2.836553e+00	1.365414e+00	6.053203e+01	1.641532e+03	-6.023712e+02	2.940670e+07	1.121133e+06	3.774271e+02	2.255394e-01	-5.057588e+16	
-2.545454e+00	1.400634e+00	6.023606e+01	1.712502e+03	-8.239340e+02	2.926229e+07	1.116275e+06	3.772503e+02	2.461542e-01	-6.018684e+16	
-2.837314e+00	1.315186e+00	6.048643e+01	1.672781e+03	-5.872696e+02	2.938445e+07	1.120385e+06	3.773999e+02	2.288223e-01	-5.205573e+16	
-2.630106e+00	1.163958e+00	6.011076e+01	1.844115e+03	-6.644686e+02	2.920115e+07	1.114216e+06	3.771752e+02	2.543490e-01	-6.425999e+16	
-2.679549e+00	1.163356e+00	6.017460e+01	1.823116e+03	-6.327365e+02	2.923229e+07	1.115265e+06	3.772134e+02	2.501797e-01	-6.218466e+16	
-2.502274e+00	1.338671e+00	6.010425e+01	1.778244e+03	-8.328985e+02	2.919798e+07	1.114109e+06	3.771713e+02	2.548222e-01	-6.447142e+16	
-2.729301e+00	1.164110e+00	6.023557e+01	1.802300e+03	-6.021940e+02	2.926204e+07	1.116267e+06	3.772499e+02	2.461352e-01	-6.020313e+16	
-2.838479e+00	1.265182e+00	6.044208e+01	1.702853e+03	-5.710722e+02	2.936280e+07	1.119657e+06	3.773734e+02	2.319604e-01	-5.349558e+16	
-2.779502e+00	1.162843e+00	6.029130e+01	1.783637e+03	-5.713726e+02	2.928924e+07	1.117182e+06	3.772833e+02	2.424041e-01	-5.839226e+16	
-2.457694e+00	1.278817e+00	5.996669e+01	1.844759e+03	-8.402672e+02	2.913087e+07	1.111847e+06	3.770887e+02	2.635760e-01	-6.894579e+16	
-2.579180e+00	1.165882e+00	6.004147e+01	1.866158e+03	-6.987365e+02	2.916735e+07	1.113077e+06	3.771336e+02	2.588227e-01	-6.651329e+16	
-2.838847e+00	1.215837e+00	6.039867e+01	1.731851e+03	-5.547138e+02	2.934162e+07	1.118945e+06	3.773475e+02	2.350055e-01	-5.490504e+16	
-2.833321e+00	1.162578e+00	6.034679e+01	1.764210e+03	-5.396488e+02	2.931630e+07	1.118093e+06	3.773164e+02	2.385899e-01	-5.658998e+16	
-2.527485e+00	1.166540e+00	5.996364e+01	1.890693e+03	-7.339525e+02	2.912937e+07	1.111797e+06	3.770869e+02	2.637228e-01	-6.904529e+16	
-2.475765e+00	1.167592e+00	5.988013e+01	1.916413e+03	-7.704547e+02	2.908863e+07	1.110423e+06	3.770367e+02	2.688983e-01	-7.176317e+16	
-2.410034e+00	1.217985e+00	5.981662e+01	1.915394e+03	-8.456972e+02	2.905766e+07	1.109378e+06	3.769985e+02	2.728303e-01	-7.383060e+16	
-2.419662e+00	1.173797e+00	5.978763e+01	1.942534e+03	-8.141472e+02	2.904351e+07	1.108900e+06	3.769810e+02	2.745680e-01	-7.477482e+16	
-2.373800e+00	1.165130e+00	5.969144e+01	1.975138e+03	-8.429993e+02	2.899660e+07	1.107317e+06	3.769230e+02	2.803342e-01	-7.790778e+16	
-2.938162e+00	2.485399e+00	6.156261e+01	8.609284e+02	-5.709665e+02	2.990958e+07	1.137997e+06	3.780373e+02	1.313420e-01	-1.721526e+16	
-2.888977e+00	2.179727e+00	6.132172e+01	1.058814e+03	-6.468080e+02	2.979201e+07	1.134063e+06	3.778954e+02	1.582761e-01	-2.499842e+16	
-2.879015e+00	2.134565e+00	6.127997e+01	1.090443e+03	-6.574391e+02	2.977164e+07	1.133381e+06	3.778708e+02	1.625234e-01	-2.634843e+16	
-2.876585e+00	2.081576e+00	6.123355e+01	1.128703e+03	-6.620892e+02	2.974900e+07	1.132622e+06	3.778434e+02	1.671321e-01	-2.784946e+16	
-2.831285e+00	2.053593e+00	6.118633e+01	1.147626e+03	-6.971420e+02	2.972594e+07	1.131850e+06	3.778155e+02	1.716153e-01	-2.937681e+16	
-2.799100e+00	1.968679e+00	6.108937e+01	1.211902e+03	-7.230340e+02	2.967863e+07	1.130264e+06	3.777581e+02	1.806044e-01	-3.251425e+16	
-2.883487e+00	1.982554e+00	6.114900e+01	1.200989e+03	-6.589071e+02	2.970774e+07	1.131239e+06	3.777934e+02	1.751686e-01	-3.058469e+16	
-2.879746e+00	2.030052e+00	6.118952e+01	1.166321e+03	-6.613342e+02	2.972751e+07	1.131902e+06	3.778173e+02	1.713512e-01	-2.927382e+16	
-2.778776e+00	1.915600e+00	6.102525e+01	1.253631e+03	-7.377393e+02	2.964735e+07	1.129214e+06	3.777201e+02	1.863252e-01	-3.458988e+16	
-2.882812e+00	1.937318e+00	6.110750e+01	1.234011e+03	-6.587955e+02	2.968748e+07	1.130560e+06	3.777688e+02	1.789792e-01	-3.192786e+16	
-2.877976e+00	1.889321e+00	6.106060e+01	1.269276e+03	-6.606639e+02	2.966460e+07	1.129793e+06	3.777411e+02	1.832021e-01	-3.344572e+16	
-2.875852e+00	1.837405e+00	6.101124e+01	1.307293e+03	-6.591758e+02	2.964052e+07	1.128985e+06	3.777118e+02	1.875767e-01	-3.504358e+16	
-2.751258e+00	1.841842e+00	6.093214e+01	1.313203e+03	-7.554681e+02	2.960192e+07	1.127690e+06	3.776650e+02	1.943161e-01	-3.760466e+16	
-2.877840e+00	1.785236e+00	6.096360e+01	1.344928e+03	-6.533830e+02	2.961727e+07	1.128205e+06	3.776836e+02	1.916968e-01	-3.658636e+16	
-2.721266e+00	1.770108e+00	6.083460e+01	1.373270e+03	-7.724660e+02	2.955433e+07	1.126093e+06	3.776071e+02	2.023676e-01	-4.076478e+16	
-2.879993e+00	1.734708e+00	6.091714e+01	1.380960e+03	-6.464764e+02	2.959461e+07	1.127445e+06	3.776560e+02	1.956125e-01	-3.809080e+16	
-2.881036e+00	1.685293e+00	6.087095e+01	1.415890e+03	-6.393961e+02	2.957207e+07	1.126688e+06	3.776286e+02	1.994336e-01	-3.958717e+16	
-2.691374e+00	1.706321e+00	6.074062e+01	1.428594e+03	-7.877098e+02	2.950847e+07	1.124553e+06	3.775512e+02	2.098051e-01	-4.381057e+16	
-2.881879e+00	1.636553e+00	6.082524e+01	1.449884e+03	-6.315257e+02	2.954976e+07	1.125940e+06	3.776015e+02	2.031435e-01	-4.106822e+16	
-2.662188e+00	1.637487e+00	6.063819e+01	1.489438e+03	-7.987507e+02	2.945849e+07	1.122874e+06	3.774903e+02	2.176715e-01	-4.713209e+16	
-2.881458e+00	1.587948e+00	6.077882e+01	1.483508e+03	-6.235315e+02	2.952712e+07	1.125179e+06	3.775739e+02	2.068452e-01	-4.257240e+16	
-2.880355e+00	1.538478e+00	6.073122e+01	1.517320e+03	-6.148024e+02	2.950389e+07	1.124399e+06	3.775456e+02	2.105756e-01	-4.411546e+16	
-2.628180e+00	1.570203e+00	6.052793e+01	1.551482e+03	-8.109572e+02	2.940469e+07	1.121066e+06	3.774246e+02	2.258204e-01	-5.070914e+16	
-2.880231e+00	1.488287e+00	6.068396e+01	1.550794e+03	-6.042383e+02	2.948083e+07	1.123625e+06	3.775175e+02	2.142176e-01	-4.564771e+16	
-2.880700e+00	1.438239e+00	6.063771e+01	1.583331e+03	-5.923281e+02	2.945826e+07	1.122866e+06	3.774900e+02	2.177248e-01	-4.714745e+16	
-2.593151e+00	1.504120e+00	6.041357e+01	1.614238e+03	-8.209888e+02	2.934890e+07	1.119190e+06	3.773564e+02	2.339866e-01	-5.442095e+16	
-2.881024e+00	1.388470e+00	6.059213e+01	1.614928e+03	-5.796575e+02	2.943602e+07	1.122119e+06	3.774629e+02	2.211264e-01	-4.862583e+16	
-2.554700e+00	1.439414e+00	6.029178e+01	1.678529e+03	-8.307865e+02	2.928948e+07	1.117190e+06	3.772836e+02	2.423969e-01	-5.837653e+16	
-2.881341e+00	1.338700e+00	6.054715e+01	1.645660e+03	-5.661250e+02	2.941408e+07	1.121381e+06	3.774361e+02	2.244272e-01	-5.008522e+16	
-2.513415e+00	1.376607e+00	6.016304e+01	1.743946e+03	-8.400084e+02	2.922667e+07	1.115075e+06	3.772065e+02	2.509875e-01	-6.256006e+16	
-2.705416e+00	1.120556e+00	6.016807e+01	1.837800e+03	-5.988156e+02	2.922910e+07	1.115158e+06	3.772095e+02	2.506052e-01	-6.239706e+16	
-2.881778e+00	1.288877e+00	6.050289e+01	1.675493e+03	-5.516642e+02	2.939248e+07	1.120655e+06	3.774097e+02	2.276209e-01	-5.152157e+16	
-2.655701e+00	1.120773e+00	6.010504e+01	1.859284e+03	-6.290942e+02	2.919836e+07	1.114122e+06	3.771717e+02	2.547144e-01	-6.444608e+16	
-2.754982e+00	1.120226e+00	6.022649e+01	1.817602e+03	-5.693460e+02	2.925761e+07	1.116118e+06	3.772445e+02	2.467427e-01	-6.049815e+16	
-2.469779e+00	1.315854e+00	6.002746e+01	1.810455e+03	-8.483144e+02	2.916052e+07	1.112847e+06	3.771252e+02	2.597402e-01	-6.696861e+16	
-2.605600e+00	1.121445e+00	6.003719e+01	1.881877e+03	-6.606678e+02	2.916525e+07	1.113006e+06	3.771310e+02	2.590719e-01	-6.665269e+16	
-2.881978e+00	1.238959e+00	6.045912e+01	1.704556e+03	-5.364730e+02	2.937111e+07	1.119937e+06	3.773835e+02	2.307327e-01	-5.294237e+16	
-2.803835e+00	1.119369e+00	6.027942e+01	1.799066e+03	-5.408072e+02	2.928344e+07	1.116987e+06	3.772762e+02	2.431794e-01	-5.877821e+16	
-2.881240e+00	1.188234e+00	6.041469e+01	1.733557e+03	-5.207421e+02	2.934943e+07	1.119208e+06	3.773570e+02	2.338618e-01	-5.438496e+16	
-2.554856e+00	1.122249e+00	5.996332e+01	1.906000e+03	-6.936197e+02	2.912921e+07	1.111791e+06	3.770867e+02	2.637414e-01	-6.905586e+16	
-2.503480e+00	1.123204e+00	5.988268e+01	1.931691e+03	-7.279945e+02	2.908987e+07	1.110465e+06	3.770382e+02	2.687361e-01	-7.168023e+16	
-2.425053e+00	1.255837e+00	5.988499e+01	1.878663e+03	-8.541684e+02	2.909102e+07	1.110503e+06	3.770396e+02	2.686506e-01	-7.160446e+16	
-2.845734e+00	1.115914e+00	6.031984e+01	1.785463e+03	-5.159680e+02	2.930315e+07	1.117651e+06	3.773003e+02	2.404432e-01	-5.746545e+16	
-2.881923e+00	1.137154e+00	6.037271e+01	1.761377e+03	-5.033045e+02	2.932896e+07	1.118519e+06	3.773319e+02	2.368183e-01	-5.574803e+16	
-2.450867e+00	1.125240e+00	5.979485e+01	1.958855e+03	-7.648483e+02	2.904702e+07	1.109019e+06	3.769853e+02	2.741008e-01	-7.453984e+16	
-2.375558e+00	1.203698e+00	5.973512e+01	1.945369e+03	-8.640760e+02	2.901789e+07	1.108036e+06	3.769494e+02	2.776955e-01	-7.648471e+16	
-2.397743e+00	1.126956e+00	5.969778e+01	1.988147e+03	-8.030134e+02	2.899966e+07	1.107421e+06	3.769268e+02	2.798750e-01	-7.770173e+16	
-2.339596e+00	1.133955e+00	5.958917e+01	2.018496e+03	-8.493692e+02	2.894669e+07	1.105632e+06	3.768613e+02	2.862905e-01	-8.124086e+16	
-2.947452e+00	2.445984e+00	6.153858e+01	8.872418e+02	-5.719746e+02	2.989785e+07	1.137605e+06	3.780232e+02	1.342568e-01	-1.799131e+16	
-2.936760e+00	2.404662e+00	6.150809e+01	9.118541e+02	-5.856904e+02	2.988297e+07	1.137107e+06	3.780053e+02	1.378914e-01	-1.897610e+16	
-2.925299e+00	2.346093e+00	6.146343e+01	9.484019e+02	-6.021632e+02	2.986117e+07	1.136378e+06	3.779790e+02	1.430272e-01	-2.041854e+16	
-2.897791e+00	2.291485e+00	6.141456e+01	9.814664e+02	-6.285147e+02	2.983733e+07	1.135580e+06	3.779502e+02	1.484811e-01	-2.199747e+16	
-2.939412e+00	2.298787e+00	6.143256e+01	9.817908e+02	-5.989193e+02	2.984611e+07	1.135874e+06	3.779608e+02	1.464808e-01	-2.141600e+16	
-2.930473e+00	2.254970e+00	6.139652e+01	1.010389e+03	-6.101542e+02	2.982852e+07	1.135285e+06	3.779395e+02	1.504124e-01	-2.258065e+16	
-2.877563e+00	2.231248e+00	6.135963e+01	1.021101e+03	-6.500373e+02	2.981051e+07	1.134682e+06	3.779178e+02	1.543304e-01	-2.377302e+16	
-2.926786e+00	2.204421e+00	6.135609e+01	1.044770e+03	-6.177259e+02	2.980879e+07	1.134625e+06	3.779157e+02	1.547553e-01	-2.388758e+16	
-2.837614e+00	2.175404e+00	6.129734e+01	1.057436e+03	-6.847747e+02	2.978012e+07	1.133665e+06	3.778811e+02	1.607608e-01	-2.578642e+16	
-2.925725e+00	2.155131e+00	6.131567e+01	1.078977e+03	-6.223780e+02	2.978906e+07	1.133964e+06	3.778918e+02	1.589101e-01	-2.519415e+16	
-2.923360e+00	2.105657e+00	6.127390e+01	1.113577e+03	-6.269565e+02	2.976868e+07	1.133281e+06	3.778672e+02	1.631293e-01	-2.654470e+16	
-2.823627e+00	2.112350e+00	6.123568e+01	1.103206e+03	-7.001257e+02	2.975003e+07	1.132657e+06	3.778446e+02	1.668784e-01	-2.778042e+16	
-2.790067e+00	2.022866e+00	6.113574e+01	1.169920e+03	-7.297977e+02	2.970126e+07	1.131022e+06	3.777856e+02	1.763541e-01	-3.101346e+16	
-2.924964e+00	2.005913e+00	6.118963e+01	1.184236e+03	-6.285200e+02	2.972756e+07	1.131903e+06	3.778174e+02	1.713407e-01	-2.927042e+16	
-2.923432e+00	2.055264e+00	6.123143e+01	1.149194e+03	-6.288106e+02	2.974796e+07	1.132587e+06	3.778421e+02	1.673183e-01	-2.791829e+16	
-2.753315e+00	1.957138e+00	6.104978e+01	1.221516e+03	-7.591289e+02	2.965932e+07	1.129616e+06	3.777347e+02	1.841599e-01	-3.379547e+16	
-2.925713e+00	1.957844e+00	6.114791e+01	1.218384e+03	-6.277576e+02	2.970720e+07	1.131221e+06	3.777927e+02	1.752648e-01	-3.062015e+16	
-2.924644e+00	1.909641e+00	6.110455e+01	1.252688e+03	-6.273006e+02	2.968604e+07	1.130512e+06	3.777671e+02	1.792579e-01	-3.202335e+16	
-2.923170e+00	1.860007e+00	6.105908e+01	1.288019e+03	-6.260321e+02	2.966386e+07	1.129768e+06	3.777401e+02	1.833567e-01	-3.349492e+16	
-2.737351e+00	1.888031e+00	6.096906e+01	1.277309e+03	-7.697102e+02	2.961993e+07	1.128295e+06	3.776869e+02	1.911769e-01	-3.640909e+16	
-2.923004e+00	1.809368e+00	6.101298e+01	1.323819e+03	-6.226701e+02	2.964137e+07	1.129013e+06	3.777128e+02	1.874272e-01	-3.498737e+16	
-2.710722e+00	1.817441e+00	6.087551e+01	1.336277e+03	-7.862483e+02	2.957428e+07	1.126763e+06	3.776314e+02	1.990177e-01	-3.943923e+16	
-2.923843e+00	1.758899e+00	6.096722e+01	1.359122e+03	-6.175287e+02	2.961904e+07	1.128265e+06	3.776857e+02	1.913787e-01	-3.646891e+16	
-2.924645e+00	1.709058e+00	6.092175e+01	1.393634e+03	-6.114269e+02	2.959685e+07	1.127520e+06	3.776588e+02	1.952242e-01	-3.794177e+16	
-2.679428e+00	1.750846e+00	6.077785e+01	1.394301e+03	-8.043008e+02	2.952664e+07	1.125163e+06	3.775734e+02	2.069035e-01	-4.260386e+16	
-2.925124e+00	1.659704e+00	6.087638e+01	1.427426e+03	-6.045849e+02	2.957472e+07	1.126777e+06	3.776318e+02	1.989840e-01	-3.941135e+16	
-2.649759e+00	1.684981e+00	6.067772e+01	1.453190e+03	-8.183764e+02	2.947778e+07	1.123522e+06	3.775138e+02	2.146781e-01	-4.584987e+16	
-2.925207e+00	1.610566e+00	6.083094e+01	1.460658e+03	-5.970492e+02	2.955255e+07	1.126033e+06	3.776049e+02	2.026800e-01	-4.088335e+16	
-2.924889e+00	1.561282e+00	6.078517e+01	1.493551e+03	-5.887769e+02	2.953021e+07	1.125283e+06	3.775777e+02	2.063376e-01	-4.236666e+16	
-2.617536e+00	1.618008e+00	6.056937e+01	1.515149e+03	-8.313913e+02	2.942492e+07	1.121746e+06	3.774493e+02	2.228030e-01	-4.936449e+16	
-2.924615e+00	1.511667e+00	6.073929e+01	1.526099e+03	-5.794377e+02	2.950783e+07	1.124531e+06	3.775504e+02	2.099413e-01	-4.385374e+16	
-2.583118e+00	1.552510e+00	6.045565e+01	1.577928e+03	-8.434272e+02	2.936943e+07	1.119880e+06	3.773815e+02	2.310296e-01	-5.305490e+16	
-2.924650e+00	1.461910e+00	6.069381e+01	1.558048e+03	-5.689211e+02	2.948564e+07	1.123786e+06	3.775234e+02	2.134566e-01	-4.532808e+16	
-2.924817e+00	1.412223e+00	6.064893e+01	1.589221e+03	-5.574384e+02	2.946374e+07	1.123050e+06	3.774967e+02	2.168728e-01	-4.678363e+16	
-2.546591e+00	1.488090e+00	6.033583e+01	1.642028e+03	-8.541465e+02	2.931097e+07	1.117913e+06	3.773099e+02	2.394026e-01	-5.694561e+16	
-2.924980e+00	1.362602e+00	6.060461e+01	1.619573e+03	-5.451278e+02	2.944211e+07	1.122324e+06	3.774703e+02	2.201915e-01	-4.822098e+16	
-2.507552e+00	1.425085e+00	6.020921e+01	1.707466e+03	-8.639471e+02	2.924920e+07	1.115834e+06	3.772342e+02	2.479575e-01	-6.105921e+16	
-2.925152e+00	1.312950e+00	6.056087e+01	1.649089e+03	-5.319977e+02	2.942077e+07	1.121606e+06	3.774442e+02	2.234120e-01	-4.964011e+16	
-2.680961e+00	1.077584e+00	6.009960e+01	1.873284e+03	-5.945872e+02	2.919570e+07	1.114032e+06	3.771685e+02	2.550655e-01	-6.462322e+16	
-2.730600e+00	1.077381e+00	6.016107e+01	1.851729e+03	-5.657706e+02	2.922569e+07	1.115043e+06	3.772053e+02	2.510627e-01	-6.262453e+16	
-2.466238e+00	1.363636e+00	6.007561e+01	1.774201e+03	-8.726187e+02	2.918402e+07	1.113638e+06	3.771541e+02	2.566847e-01	-6.540274e+16	
-2.631076e+00	1.077888e+00	6.003328e+01	1.896097e+03	-6.243517e+02	2.916334e+07	1.112942e+06	3.771287e+02	2.593161e-01	-6.677997e+16	
-2.925276e+00	1.263136e+00	6.051765e+01	1.677821e+03	-5.180594e+02	2.939968e+07	1.120897e+06	3.774185e+02	2.265420e-01	-5.104262e+16	
-2.779843e+00	1.077231e+00	6.021785e+01	1.831457e+03	-5.379098e+02	2.925339e+07	1.115975e+06	3.772393e+02	2.473081e-01	-6.077924e+16	
-2.925203e+00	1.212897e+00	6.047478e+01	1.706014e+03	-5.033189e+02	2.937875e+07	1.120194e+06	3.773929e+02	2.296136e-01	-5.243410e+16	
-2.423181e+00	1.303602e+00	5.993505e+01	1.842273e+03	-8.796667e+02	2.911544e+07	1.111327e+06	3.770697e+02	2.655686e-01	-6.997516e+16	
-2.580877e+00	1.078337e+00	5.996168e+01	1.920252e+03	-6.551894e+02	2.912841e+07	1.111765e+06	3.770857e+02	2.638339e-01	-6.910920e+16	
-2.828277e+00	1.077587e+00	6.027039e+01	1.812324e+03	-5.113703e+02	2.927903e+07	1.116838e+06	3.772707e+02	2.437925e-01	-5.907191e+16	
-2.925134e+00	1.162072e+00	6.043223e+01	1.733773e+03	-4.875957e+02	2.935799e+07	1.119496e+06	3.773675e+02	2.326351e-01	-5.381564e+16	
-2.530233e+00	1.078948e+00	5.988414e+01	1.945875e+03	-6.872213e+02	2.909058e+07	1.110489e+06	3.770391e+02	2.686453e-01	-7.163292e+16	
-2.478922e+00	1.079932e+00	5.979986e+01	1.973040e+03	-7.207685e+02	2.904946e+07	1.109102e+06	3.769883e+02	2.737800e-01	-7.437679e+16	
-2.377718e+00	1.245708e+00	5.978608e+01	1.911661e+03	-8.859468e+02	2.904276e+07	1.108875e+06	3.769801e+02	2.746692e-01	-7.482494e+16	
-2.880288e+00	1.082986e+00	6.032676e+01	1.790399e+03	-4.853627e+02	2.930653e+07	1.117764e+06	3.773045e+02	2.399670e-01	-5.724066e+16	
-2.426776e+00	1.081291e+00	5.970777e+01	2.001997e+03	-7.560477e+02	2.900454e+07	1.107585e+06	3.769329e+02	2.792878e-01	-7.737618e+16	
-2.335303e+00	1.187153e+00	5.963705e+01	1.981656e+03	-8.853010e+02	2.897007e+07	1.106421e+06	3.768902e+02	2.835456e-01	-7.967992e+16	
-2.924796e+00	1.111156e+00	6.039040e+01	1.760642e+03	-4.712978e+02	2.933758e+07	1.118809e+06	3.773425e+02	2.355643e-01	-5.517365e+16	
-2.924312e+00	1.068916e+00	6.035670e+01	1.782183e+03	-4.573807e+02	2.932114e+07	1.118256e+06	3.773224e+02	2.379147e-01	-5.626834e+16	
-2.373376e+00	1.083063e+00	5.960658e+01	2.033100e+03	-7.935102e+02	2.895517e+07	1.105919e+06	3.768718e+02	2.852444e-01	-8.067371e+16	
-2.320050e+00	1.081836e+00	5.949399e+01	2.068024e+03	-8.300564e+02	2.890025e+07	1.104063e+06	3.768038e+02	2.917190e-01	-8.434423e+16	
-2.283978e+00	1.122217e+00	5.945617e+01	2.062971e+03	-8.830788e+02	2.888182e+07	1.103440e+06	3.767809e+02	2.939270e-01	-8.557743e+16	
-2.270416e+00	1.076903e+00	5.937755e+01	2.105028e+03	-8.622213e+02	2.884345e+07	1.102143e+06	3.767333e+02	2.982914e-01	-8.814244e+16	
-2.229529e+00	1.071699e+00	5.927402e+01	2.137840e+03	-8.882099e+02	2.879295e+07	1.100435e+06	3.766706e+02	3.040234e-01	-9.152133e+16	
-2.982005e+00	2.724600e+00	6.170739e+01	7.313547e+02	-4.957628e+02	2.998023e+07	1.140360e+06	3.781224e+02	1.121094e-01	-1.254195e+16	