TITLE = "Visualization of the solution"
VARIABLES = "x","y","Density","Momentum_x","Momentum_y","Energy","Pressure","Temperature","Pressure_Coefficient","Mach"
ZONE NODES= 2563, ELEMENTS= 4935, DATAPACKING=POINT, ZONETYPE=FEQUADRILATERAL
8.752535e-03	2.087379e-01	2.094983e+02	9.728980e+03	1.312700e-03	6.307846e+07	8.202717e+05	6.526403e+02	-5.583802e-06	1.699999e+00	
9.878920e-01	6.490763e-02	1.385123e+02	7.386916e+03	-1.584258e+03	4.150276e+07	7.386322e+05	6.475304e+02	-3.613965e-01	1.279800e+00	
8.735878e-03	9.912413e-01	2.095000e+02	9.729012e+03	-7.787583e-06	6.307897e+07	8.202730e+05	6.526404e+02	-1.784767e-08	1.700000e+00	
4.201342e-01	5.840251e-01	2.078883e+02	9.689735e+03	-2.683304e+01	6.258907e+07	8.190641e+05	6.525400e+02	-5.351487e-03	1.697174e+00	
4.366405e-01	5.722714e-01	2.072237e+02	9.673159e+03	-3.844672e+01	6.238704e+07	8.185618e+05	6.524984e+02	-7.575044e-03	1.695792e+00	
4.429473e-01	5.873817e-01	2.074105e+02	9.677419e+03	-3.553612e+01	6.244380e+07	8.187032e+05	6.525101e+02	-6.949101e-03	1.696120e+00	
4.555283e-01	5.726875e-01	2.065565e+02	9.656044e+03	-5.060485e+01	6.218418e+07	8.180551e+05	6.524565e+02	-9.817951e-03	1.694237e+00	
4.633365e-01	5.892551e-01	2.068288e+02	9.662138e+03	-4.643961e+01	6.226693e+07	8.182622e+05	6.524736e+02	-8.901287e-03	1.694726e+00	
4.798881e-01	5.924129e-01	2.063846e+02	9.650191e+03	-5.481608e+01	6.213185e+07	8.179241e+05	6.524457e+02	-1.039764e-02	1.693570e+00	
4.794609e-01	5.746988e-01	2.056573e+02	9.632346e+03	-6.756539e+01	6.191079e+07	8.173685e+05	6.523999e+02	-1.285745e-02	1.691893e+00	
4.964285e-01	5.886211e-01	2.055204e+02	9.627673e+03	-7.072111e+01	6.186912e+07	8.172635e+05	6.523912e+02	-1.332211e-02	1.691337e+00	
5.038899e-01	5.705422e-01	2.043740e+02	9.598420e+03	-9.164116e+01	6.152063e+07	8.163806e+05	6.523187e+02	-1.723049e-02	1.688266e+00	
5.171050e-01	5.862740e-01	2.044564e+02	9.599466e+03	-9.067176e+01	6.154564e+07	8.164443e+05	6.523240e+02	-1.694851e-02	1.688310e+00	
5.262288e-01	5.682708e-01	2.029502e+02	9.560146e+03	-1.188174e+02	6.108775e+07	8.152730e+05	6.522282e+02	-2.213348e-02	1.683773e+00	
5.381370e-01	5.848553e-01	2.032110e+02	9.565883e+03	-1.145313e+02	6.116696e+07	8.154767e+05	6.522448e+02	-2.123171e-02	1.684401e+00	
5.480486e-01	5.669527e-01	2.013310e+02	9.515914e+03	-1.503765e+02	6.059545e+07	8.139976e+05	6.521247e+02	-2.777895e-02	1.678101e+00	
5.587953e-01	5.841228e-01	2.018268e+02	9.527821e+03	-1.416926e+02	6.074609e+07	8.143898e+05	6.521565e+02	-2.604276e-02	1.679602e+00	
5.695170e-01	5.667387e-01	1.995662e+02	9.466801e+03	-1.855130e+02	6.005885e+07	8.125873e+05	6.520111e+02	-3.402214e-02	1.671249e+00	
5.781292e-01	5.840986e-01	2.004458e+02	9.489287e+03	-1.691254e+02	6.032618e+07	8.132928e+05	6.520678e+02	-3.089920e-02	1.674383e+00	
5.891312e-01	5.693131e-01	1.980847e+02	9.425081e+03	-2.151704e+02	5.960840e+07	8.113859e+05	6.519151e+02	-3.934023e-02	1.665018e+00	
5.934494e-01	5.844551e-01	1.991809e+02	9.454008e+03	-1.941012e+02	5.994161e+07	8.122762e+05	6.519861e+02	-3.539929e-02	1.669324e+00	
4.108549e-01	6.028968e-01	2.083410e+02	9.700817e+03	-1.905009e+01	6.272666e+07	8.194049e+05	6.525683e+02	-3.842836e-03	1.698029e+00	
3.976067e-01	6.032943e-01	2.085772e+02	9.706749e+03	-1.492276e+01	6.279847e+07	8.195823e+05	6.525830e+02	-3.057306e-03	1.698485e+00	
3.989421e-01	5.909057e-01	2.083808e+02	9.702064e+03	-1.819261e+01	6.273878e+07	8.194348e+05	6.525707e+02	-3.710215e-03	1.698150e+00	
4.207921e-01	5.606427e-01	2.073760e+02	9.677433e+03	-3.528688e+01	6.243334e+07	8.186770e+05	6.525079e+02	-7.064736e-03	1.696200e+00	
4.309155e-01	6.028491e-01	2.079886e+02	9.691841e+03	-2.534476e+01	6.261952e+07	8.191396e+05	6.525462e+02	-5.016984e-03	1.697306e+00	
4.005493e-01	5.721104e-01	2.080713e+02	9.694703e+03	-2.322934e+01	6.264471e+07	8.192020e+05	6.525514e+02	-4.741081e-03	1.697610e+00	
4.442576e-01	5.573177e-01	2.065027e+02	9.655264e+03	-5.091758e+01	6.216787e+07	8.180142e+05	6.524531e+02	-9.999028e-03	1.694212e+00	
4.514784e-01	6.041101e-01	2.075664e+02	9.680889e+03	-3.303795e+01	6.249116e+07	8.188210e+05	6.525198e+02	-6.427465e-03	1.696373e+00	
3.993974e-01	5.533336e-01	2.077721e+02	9.687639e+03	-2.797155e+01	6.255378e+07	8.189764e+05	6.525327e+02	-5.739558e-03	1.697079e+00	
4.667730e-01	5.561623e-01	2.055350e+02	9.630228e+03	-6.873864e+01	6.187367e+07	8.172748e+05	6.523922e+02	-1.327219e-02	1.691755e+00	
4.707836e-01	6.052729e-01	2.070893e+02	9.668380e+03	-4.176619e+01	6.234611e+07	8.184599e+05	6.524899e+02	-8.026114e-03	1.695253e+00	
4.892755e-01	6.051217e-01	2.064573e+02	9.651804e+03	-5.331378e+01	6.215394e+07	8.179795e+05	6.524502e+02	-1.015245e-02	1.693701e+00	
4.901886e-01	5.544704e-01	2.043218e+02	9.598128e+03	-9.168315e+01	6.150483e+07	8.163403e+05	6.523154e+02	-1.740892e-02	1.688301e+00	
5.085312e-01	6.037382e-01	2.056334e+02	9.630025e+03	-6.867595e+01	6.190345e+07	8.173501e+05	6.523984e+02	-1.293861e-02	1.691533e+00	
5.133941e-01	5.520147e-01	2.027759e+02	9.556586e+03	-1.212842e+02	6.103481e+07	8.151365e+05	6.522171e+02	-2.273738e-02	1.683394e+00	
5.287764e-01	6.025667e-01	2.046611e+02	9.604088e+03	-8.701236e+01	6.160784e+07	8.166024e+05	6.523369e+02	-1.624866e-02	1.688768e+00	
5.360549e-01	5.500244e-01	2.009716e+02	9.507427e+03	-1.563131e+02	6.048625e+07	8.137123e+05	6.521016e+02	-2.904216e-02	1.677011e+00	
5.491575e-01	6.017166e-01	2.035463e+02	9.573918e+03	-1.083970e+02	6.126888e+07	8.157381e+05	6.522662e+02	-2.007445e-02	1.685305e+00	
5.587846e-01	5.486318e-01	1.988861e+02	9.449677e+03	-1.976047e+02	5.985218e+07	8.120380e+05	6.519671e+02	-3.645357e-02	1.668783e+00	
5.691651e-01	6.009484e-01	2.023157e+02	9.540122e+03	-1.323710e+02	6.089469e+07	8.147751e+05	6.521877e+02	-2.433754e-02	1.681135e+00	
5.835690e-01	5.480933e-01	1.965096e+02	9.382810e+03	-2.453667e+02	5.912962e+07	8.100905e+05	6.518124e+02	-4.507448e-02	1.658379e+00	
6.058817e-01	5.757774e-01	1.970783e+02	9.396123e+03	-2.356581e+02	5.930238e+07	8.105601e+05	6.518495e+02	-4.299587e-02	1.660483e+00	
5.882969e-01	5.994151e-01	2.009427e+02	9.502109e+03	-1.593339e+02	6.047723e+07	8.136889e+05	6.520997e+02	-2.914547e-02	1.676115e+00	
6.056036e-01	5.939151e-01	1.990175e+02	9.448648e+03	-1.975202e+02	5.989186e+07	8.121438e+05	6.519755e+02	-3.598507e-02	1.668511e+00	
6.038135e-01	5.573245e-01	1.954120e+02	9.351050e+03	-2.681110e+02	5.879589e+07	8.091756e+05	6.517405e+02	-4.912445e-02	1.653139e+00	
6.028646e-01	5.401163e-01	1.932692e+02	9.291661e+03	-3.104906e+02	5.814452e+07	8.073608e+05	6.515992e+02	-5.715810e-02	1.642876e+00	
3.769443e-01	6.219440e-01	2.089553e+02	9.716026e+03	-8.528263e+00	6.291340e+07	8.198658e+05	6.526066e+02	-1.802491e-03	1.699153e+00	
3.980056e-01	6.175825e-01	2.087259e+02	9.710362e+03	-1.238334e+01	6.284368e+07	8.196940e+05	6.525923e+02	-2.563256e-03	1.698745e+00	
3.828768e-01	6.021788e-01	2.087652e+02	9.711443e+03	-1.171022e+01	6.285561e+07	8.197234e+05	6.525947e+02	-2.433077e-03	1.698835e+00	
4.198995e-01	6.193667e-01	2.084349e+02	9.702987e+03	-1.750002e+01	6.275519e+07	8.194755e+05	6.525741e+02	-3.530482e-03	1.698179e+00	
3.822320e-01	5.815580e-01	2.085453e+02	9.706326e+03	-1.518196e+01	6.278878e+07	8.195584e+05	6.525810e+02	-3.163406e-03	1.698490e+00	
4.320991e-01	5.425530e-01	2.064975e+02	9.655732e+03	-5.031656e+01	6.216632e+07	8.180102e+05	6.524528e+02	-1.001647e-02	1.694304e+00	
4.404874e-01	6.200639e-01	2.080972e+02	9.694345e+03	-2.351621e+01	6.265253e+07	8.192215e+05	6.525530e+02	-4.654809e-03	1.697485e+00	
4.134471e-01	5.436934e-01	2.071910e+02	9.673274e+03	-3.795362e+01	6.237712e+07	8.185369e+05	6.524963e+02	-7.684976e-03	1.695885e+00	
3.827244e-01	5.628498e-01	2.083034e+02	9.700654e+03	-1.895700e+01	6.271526e+07	8.193766e+05	6.525659e+02	-3.967939e-03	1.698092e+00	
4.542027e-01	5.403641e-01	2.054785e+02	9.629471e+03	-6.895284e+01	6.185653e+07	8.172315e+05	6.523886e+02	-1.346380e-02	1.691729e+00	
4.605500e-01	6.207125e-01	2.077011e+02	9.684117e+03	-3.061116e+01	6.253211e+07	8.189228e+05	6.525283e+02	-5.976881e-03	1.696628e+00	
3.835324e-01	5.473054e-01	2.080220e+02	9.693975e+03	-2.342113e+01	6.262974e+07	8.191648e+05	6.525483e+02	-4.905480e-03	1.697600e+00	
4.801090e-01	6.209743e-01	2.072105e+02	9.671381e+03	-3.943451e+01	6.238294e+07	8.185517e+05	6.524975e+02	-7.619614e-03	1.695511e+00	
4.770762e-01	5.383164e-01	2.042040e+02	9.595895e+03	-9.294444e+01	6.146905e+07	8.162491e+05	6.523080e+02	-1.781265e-02	1.688105e+00	
4.996212e-01	6.206413e-01	2.065823e+02	9.654898e+03	-5.094051e+01	6.219195e+07	8.180747e+05	6.524581e+02	-9.731087e-03	1.693982e+00	
5.002000e-01	5.360655e-01	2.026240e+02	9.553494e+03	-1.232635e+02	6.098868e+07	8.150175e+05	6.522074e+02	-2.326419e-02	1.683061e+00	
5.194890e-01	6.200066e-01	2.058138e+02	9.634513e+03	-6.526314e+01	6.195827e+07	8.174882e+05	6.524097e+02	-1.232733e-02	1.691970e+00	
5.231477e-01	5.337383e-01	2.007155e+02	9.501471e+03	-1.603941e+02	6.040844e+07	8.135084e+05	6.520852e+02	-2.994457e-02	1.676237e+00	
5.396434e-01	6.193901e-01	2.049132e+02	9.610423e+03	-8.223384e+01	6.168447e+07	8.167968e+05	6.523529e+02	-1.538813e-02	1.689433e+00	
5.459049e-01	5.315537e-01	1.984927e+02	9.439970e+03	-2.043087e+02	5.973263e+07	8.117187e+05	6.519416e+02	-3.786699e-02	1.667357e+00	
5.598766e-01	6.187458e-01	2.038733e+02	9.582332e+03	-1.020604e+02	6.136827e+07	8.159923e+05	6.522869e+02	-1.894904e-02	1.686268e+00	
5.688020e-01	5.293776e-01	1.959438e+02	9.368267e+03	-2.555563e+02	5.895769e+07	8.096204e+05	6.517754e+02	-4.715526e-02	1.656013e+00	
5.803517e-01	6.177098e-01	2.026501e+02	9.548935e+03	-1.257177e+02	6.099636e+07	8.150377e+05	6.522091e+02	-2.317502e-02	1.682230e+00	
6.028955e-01	6.153790e-01	2.010829e+02	9.505470e+03	-1.565786e+02	6.051984e+07	8.138004e+05	6.521087e+02	-2.865207e-02	1.676551e+00	
6.217845e-01	5.846260e-01	1.965086e+02	9.378638e+03	-2.478880e+02	5.912908e+07	8.100890e+05	6.518123e+02	-4.508134e-02	1.657658e+00	
6.215287e-01	6.210530e-01	2.001653e+02	9.479953e+03	-1.745587e+02	6.024081e+07	8.130681e+05	6.520497e+02	-3.189386e-02	1.673019e+00	
6.212359e-01	6.039025e-01	1.985705e+02	9.435344e+03	-2.066423e+02	5.975592e+07	8.117812e+05	6.519466e+02	-3.759026e-02	1.666504e+00	
6.212844e-01	5.654288e-01	1.943569e+02	9.319868e+03	-2.905296e+02	5.847505e+07	8.082866e+05	6.516710e+02	-5.305991e-02	1.647832e+00	
6.197426e-01	5.458732e-01	1.919654e+02	9.253363e+03	-3.383257e+02	5.774811e+07	8.062361e+05	6.515126e+02	-6.213666e-02	1.635975e+00	
5.913144e-01	5.261130e-01	1.929347e+02	9.283033e+03	-3.163860e+02	5.804289e+07	8.070740e+05	6.515771e+02	-5.842749e-02	1.641328e+00	
6.154257e-01	5.237673e-01	1.894553e+02	9.182726e+03	-3.885777e+02	5.698514e+07	8.040263e+05	6.513447e+02	-7.191856e-02	1.622648e+00	
3.689601e-01	6.392027e-01	2.091137e+02	9.719865e+03	-5.928974e+00	6.296155e+07	8.199844e+05	6.526164e+02	-1.277656e-03	1.699417e+00	
3.604843e-01	6.257971e-01	2.091121e+02	9.719842e+03	-5.971681e+00	6.296106e+07	8.199832e+05	6.526163e+02	-1.282975e-03	1.699417e+00	
3.887238e-01	6.374038e-01	2.089527e+02	9.715922e+03	-8.582434e+00	6.291261e+07	8.198639e+05	6.526064e+02	-1.811109e-03	1.699142e+00	
3.627008e-01	6.098226e-01	2.089992e+02	9.717155e+03	-7.814381e+00	6.292674e+07	8.198987e+05	6.526093e+02	-1.657045e-03	1.699238e+00	
4.093242e-01	6.365415e-01	2.087493e+02	9.710875e+03	-1.202302e+01	6.285078e+07	8.197115e+05	6.525937e+02	-2.485698e-03	1.698776e+00	
3.641776e-01	5.906965e-01	2.088560e+02	9.713821e+03	-1.007629e+01	6.288323e+07	8.197915e+05	6.526004e+02	-2.131646e-03	1.699021e+00	
4.299633e-01	6.368250e-01	2.084937e+02	9.704395e+03	-1.649855e+01	6.277306e+07	8.195196e+05	6.525778e+02	-3.334915e-03	1.698280e+00	
4.193000e-01	5.284020e-01	2.065288e+02	9.657084e+03	-4.903844e+01	6.217585e+07	8.180341e+05	6.524548e+02	-9.910982e-03	1.694475e+00	
3.649370e-01	5.711611e-01	2.086806e+02	9.709779e+03	-1.273230e+01	6.282993e+07	8.196600e+05	6.525894e+02	-2.713669e-03	1.698756e+00	
4.502345e-01	6.371614e-01	2.081820e+02	9.696420e+03	-2.201085e+01	6.267830e+07	8.192853e+05	6.525583e+02	-4.372310e-03	1.697645e+00	
4.413129e-01	5.254806e-01	2.054766e+02	9.630164e+03	-6.808616e+01	6.185599e+07	8.172300e+05	6.523885e+02	-1.347012e-02	1.691853e+00	
3.965149e-01	5.340159e-01	2.074276e+02	9.679562e+03	-3.328750e+01	6.244909e+07	8.187161e+05	6.525112e+02	-6.891663e-03	1.696455e+00	
3.668647e-01	5.522180e-01	2.084468e+02	9.704306e+03	-1.633037e+01	6.275886e+07	8.194844e+05	6.525749e+02	-3.490796e-03	1.698380e+00	
3.732838e-01	5.346073e-01	2.080461e+02	9.694835e+03	-2.261752e+01	6.263709e+07	8.191830e+05	6.525498e+02	-4.824952e-03	1.697692e+00	
4.702183e-01	6.374034e-01	2.077998e+02	9.686591e+03	-2.879869e+01	6.256210e+07	8.189973e+05	6.525344e+02	-5.647275e-03	1.696831e+00	
4.639945e-01	5.229802e-01	2.041433e+02	9.595257e+03	-9.298936e+01	6.145063e+07	8.162021e+05	6.523041e+02	-1.802068e-02	1.688091e+00	
4.900563e-01	6.374168e-01	2.073214e+02	9.674194e+03	-3.739397e+01	6.241666e+07	8.186357e+05	6.525045e+02	-7.247766e-03	1.695756e+00	
4.869716e-01	5.205561e-01	2.024958e+02	9.551186e+03	-1.245600e+02	6.094977e+07	8.149170e+05	6.521993e+02	-2.370926e-02	1.682828e+00	
5.099467e-01	6.372129e-01	2.067271e+02	9.658613e+03	-4.826797e+01	6.223597e+07	8.181848e+05	6.524672e+02	-9.243591e-03	1.694326e+00	
5.099187e-01	5.180702e-01	2.005070e+02	9.496979e+03	-1.633898e+02	6.034511e+07	8.133421e+05	6.520718e+02	-3.068066e-02	1.675660e+00	
5.299821e-01	6.369085e-01	2.060112e+02	9.639644e+03	-6.156501e+01	6.201829e+07	8.176392e+05	6.524222e+02	-1.165908e-02	1.692479e+00	
5.326401e-01	5.155239e-01	1.981723e+02	9.432265e+03	-2.097061e+02	5.963530e+07	8.114579e+05	6.519208e+02	-3.902145e-02	1.666211e+00	
5.501432e-01	6.365502e-01	2.051675e+02	9.617106e+03	-7.741693e+01	6.176176e+07	8.169924e+05	6.523689e+02	-1.452206e-02	1.690144e+00	
5.551072e-01	5.128593e-01	1.955005e+02	9.356998e+03	-2.635933e+02	5.882297e+07	8.092503e+05	6.517464e+02	-4.879380e-02	1.654150e+00	
5.704795e-01	6.360675e-01	2.041762e+02	9.590395e+03	-9.628996e+01	6.146036e+07	8.162273e+05	6.523062e+02	-1.790897e-02	1.687190e+00	
5.912605e-01	6.354617e-01	2.030125e+02	9.558590e+03	-1.188532e+02	6.110652e+07	8.153215e+05	6.522322e+02	-2.191882e-02	1.683413e+00	
6.341823e-01	6.358228e-01	2.002387e+02	9.481951e+03	-1.734422e+02	6.026315e+07	8.131269e+05	6.520544e+02	-3.163343e-02	1.673300e+00	
6.374037e-01	6.140673e-01	1.980974e+02	9.421855e+03	-2.160828e+02	5.961206e+07	8.113957e+05	6.519158e+02	-3.929667e-02	1.664448e+00	
6.120254e-01	6.359120e-01	2.018390e+02	9.526368e+03	-1.417076e+02	6.074972e+07	8.143993e+05	6.521572e+02	-2.600095e-02	1.679332e+00	
6.382324e-01	5.943092e-01	1.959554e+02	9.361820e+03	-2.594734e+02	5.896084e+07	8.096291e+05	6.517761e+02	-4.711707e-02	1.654897e+00	
6.383794e-01	5.746162e-01	1.936303e+02	9.297442e+03	-3.064157e+02	5.825406e+07	8.076686e+05	6.516230e+02	-5.579526e-02	1.643925e+00	
6.378631e-01	5.547904e-01	1.910996e+02	9.226901e+03	-3.575753e+02	5.748480e+07	8.054802e+05	6.514548e+02	-6.548284e-02	1.631105e+00	
5.772760e-01	5.097987e-01	1.924791e+02	9.270684e+03	-3.253368e+02	5.790442e+07	8.066817e+05	6.515468e+02	-6.016434e-02	1.639097e+00	
6.368084e-01	5.343515e-01	1.883479e+02	9.149200e+03	-4.133685e+02	5.664843e+07	8.030308e+05	6.512700e+02	-7.632556e-02	1.616165e+00	
5.992309e-01	5.061887e-01	1.891112e+02	9.173399e+03	-3.950970e+02	5.688058e+07	8.037188e+05	6.513216e+02	-7.328003e-02	1.620827e+00	
6.202877e-01	5.008153e-01	1.853766e+02	9.063951e+03	-4.741809e+02	5.574536e+07	8.002975e+05	6.510682e+02	-8.842494e-02	1.598986e+00	
6.371161e-01	5.134430e-01	1.850899e+02	9.054941e+03	-4.809807e+02	5.565817e+07	8.000281e+05	6.510485e+02	-8.961732e-02	1.597163e+00	
6.391099e-01	4.936262e-01	1.812342e+02	8.941182e+03	-5.637300e+02	5.448626e+07	7.963171e+05	6.507826e+02	-1.060445e-01	1.573323e+00	
3.431931e-01	6.572988e-01	2.093008e+02	9.724348e+03	-2.976344e+00	6.301843e+07	8.201243e+05	6.526281e+02	-6.584037e-04	1.699712e+00	
3.600051e-01	6.558620e-01	2.092251e+02	9.722540e+03	-4.153478e+00	6.299541e+07	8.200677e+05	6.526233e+02	-9.089453e-04	1.699594e+00	
3.480226e-01	6.393036e-01	2.092301e+02	9.722677e+03	-4.084946e+00	6.299693e+07	8.200714e+05	6.526237e+02	-8.924321e-04	1.699605e+00	
3.795225e-01	6.550930e-01	2.091156e+02	9.719885e+03	-5.919804e+00	6.296213e+07	8.199858e+05	6.526165e+02	-1.271349e-03	1.699415e+00	
3.458334e-01	6.188612e-01	2.091686e+02	9.721238e+03	-5.068433e+00	6.297825e+07	8.200254e+05	6.526198e+02	-1.095863e-03	1.699514e+00	
3.995346e-01	6.543584e-01	2.089683e+02	9.716263e+03	-8.370571e+00	6.291737e+07	8.198756e+05	6.526074e+02	-1.759163e-03	1.699161e+00	
3.461361e-01	5.997315e-01	2.090707e+02	9.718984e+03	-6.570102e+00	6.294850e+07	8.199522e+05	6.526137e+02	-1.419966e-03	1.699374e+00	
4.198039e-01	6.540823e-01	2.087810e+02	9.711596e+03	-1.155750e+01	6.286041e+07	8.197352e+05	6.525957e+02	-2.380504e-03	1.698822e+00	
3.467773e-01	5.801097e-01	2.089494e+02	9.716203e+03	-8.389401e+00	6.291162e+07	8.198614e+05	6.526062e+02	-1.822051e-03	1.699199e+00	
4.400456e-01	6.541474e-01	2.085454e+02	9.705644e+03	-1.564516e+01	6.278879e+07	8.195585e+05	6.525810e+02	-3.162920e-03	1.698370e+00	
4.279961e-01	5.109091e-01	2.055290e+02	9.632225e+03	-6.616720e+01	6.187196e+07	8.172703e+05	6.523918e+02	-1.329205e-02	1.692114e+00	
4.053128e-01	5.142394e-01	2.066436e+02	9.660534e+03	-4.620948e+01	6.221077e+07	8.181214e+05	6.524620e+02	-9.524236e-03	1.694837e+00	
3.478348e-01	5.600079e-01	2.087864e+02	9.712452e+03	-1.082079e+01	6.286208e+07	8.197393e+05	6.525960e+02	-2.362682e-03	1.698958e+00	
3.827655e-01	5.171974e-01	2.074668e+02	9.680977e+03	-3.194034e+01	6.246102e+07	8.187458e+05	6.525136e+02	-6.760452e-03	1.696614e+00	
4.601503e-01	6.542796e-01	2.082523e+02	9.698173e+03	-2.078579e+01	6.269967e+07	8.193382e+05	6.525627e+02	-4.138184e-03	1.697782e+00	
4.507605e-01	5.081015e-01	2.041355e+02	9.595981e+03	-9.195811e+01	6.144830e+07	8.161960e+05	6.523036e+02	-1.804731e-02	1.688229e+00	
3.501681e-01	5.379394e-01	2.085370e+02	9.706695e+03	-1.449796e+01	6.278628e+07	8.195521e+05	6.525805e+02	-3.190971e-03	1.698575e+00	
3.612513e-01	5.195915e-01	2.080699e+02	9.695661e+03	-2.181471e+01	6.264432e+07	8.192009e+05	6.525513e+02	-4.745747e-03	1.697780e+00	
4.801512e-01	6.543588e-01	2.078872e+02	9.688806e+03	-2.725111e+01	6.258867e+07	8.190632e+05	6.525399e+02	-5.355489e-03	1.697014e+00	
4.736904e-01	5.054837e-01	2.024154e+02	9.550213e+03	-1.247364e+02	6.092538e+07	8.148539e+05	6.521941e+02	-2.398847e-02	1.682763e+00	
3.438805e-01	5.207354e-01	2.084529e+02	9.704837e+03	-1.558002e+01	6.276073e+07	8.194890e+05	6.525752e+02	-3.470467e-03	1.698457e+00	
5.001266e-01	6.543438e-01	2.074330e+02	9.677047e+03	-3.541258e+01	6.245058e+07	8.187201e+05	6.525115e+02	-6.874081e-03	1.696004e+00	
4.965956e-01	5.028666e-01	2.003403e+02	9.493817e+03	-1.652405e+02	6.029449e+07	8.132090e+05	6.520611e+02	-3.127002e-02	1.675267e+00	
5.201447e-01	6.542528e-01	2.068763e+02	9.662477e+03	-4.558307e+01	6.228132e+07	8.182982e+05	6.524766e+02	-8.741947e-03	1.694684e+00	
5.192733e-01	5.001542e-01	1.979012e+02	9.426250e+03	-2.137896e+02	5.955293e+07	8.112366e+05	6.519032e+02	-4.000119e-02	1.665316e+00	
5.402329e-01	6.541114e-01	2.062077e+02	9.644804e+03	-5.797675e+01	6.207805e+07	8.177893e+05	6.524345e+02	-1.099472e-02	1.692988e+00	
5.415883e-01	4.972797e-01	1.951102e+02	9.347568e+03	-2.703390e+02	5.870441e+07	8.089232e+05	6.517207e+02	-5.024181e-02	1.652570e+00	
5.604135e-01	6.539141e-01	2.054169e+02	9.623704e+03	-7.284920e+01	6.183759e+07	8.171840e+05	6.523847e+02	-1.367384e-02	1.690837e+00	
5.807371e-01	6.536787e-01	2.044951e+02	9.598828e+03	-9.047998e+01	6.155732e+07	8.164741e+05	6.523264e+02	-1.681662e-02	1.688132e+00	
6.541837e-01	6.458270e-01	1.995092e+02	9.460843e+03	-1.890461e+02	6.004128e+07	8.125408e+05	6.520073e+02	-3.422799e-02	1.670260e+00	
6.387776e-01	6.550425e-01	2.013078e+02	9.511144e+03	-1.531223e+02	6.058816e+07	8.139787e+05	6.521231e+02	-2.786254e-02	1.677297e+00	
6.542305e-01	6.248971e-01	1.976672e+02	9.409257e+03	-2.254391e+02	5.948125e+07	8.110438e+05	6.518879e+02	-4.085459e-02	1.662493e+00	
6.213082e-01	6.538033e-01	2.023408e+02	9.539890e+03	-1.324111e+02	6.090226e+07	8.147946e+05	6.521893e+02	-2.425085e-02	1.681063e+00	
6.550759e-01	6.043790e-01	1.954149e+02	9.345631e+03	-2.708991e+02	5.879648e+07	8.091773e+05	6.517406e+02	-4.911687e-02	1.652200e+00	
6.011295e-01	6.536176e-01	2.034699e+02	9.570863e+03	-1.103476e+02	6.124560e+07	8.156785e+05	6.522613e+02	-2.033835e-02	1.684888e+00	
6.554761e-01	5.843613e-01	1.929878e+02	9.277545e+03	-3.203021e+02	5.805864e+07	8.071183e+05	6.515804e+02	-5.823144e-02	1.640401e+00	
6.554789e-01	5.644358e-01	1.903574e+02	9.203850e+03	-3.740159e+02	5.725908e+07	8.048265e+05	6.514051e+02	-6.837664e-02	1.626798e+00	
5.634671e-01	4.941362e-01	1.919906e+02	9.258191e+03	-3.346115e+02	5.775602e+07	8.062590e+05	6.515144e+02	-6.203537e-02	1.636806e+00	
6.552094e-01	5.443838e-01	1.874964e+02	9.122932e+03	-4.326634e+02	5.638949e+07	8.022564e+05	6.512123e+02	-7.975328e-02	1.611016e+00	
5.848553e-01	4.905860e-01	1.885750e+02	9.158891e+03	-4.060965e+02	5.671768e+07	8.032371e+05	6.512855e+02	-7.541233e-02	1.617977e+00	
6.055268e-01	4.864025e-01	1.849144e+02	9.051139e+03	-4.839469e+02	5.560492e+07	7.998638e+05	6.510366e+02	-9.034455e-02	1.596328e+00	
6.551228e-01	5.241609e-01	1.843068e+02	9.030875e+03	-4.989975e+02	5.542006e+07	7.992880e+05	6.509948e+02	-9.289341e-02	1.592243e+00	
6.248188e-01	4.816316e-01	1.811099e+02	8.938653e+03	-5.657652e+02	5.444858e+07	7.961951e+05	6.507740e+02	-1.065849e-01	1.572730e+00	
6.555510e-01	5.040929e-01	1.806582e+02	8.922957e+03	-5.772308e+02	5.431114e+07	7.957467e+05	6.507425e+02	-1.085699e-01	1.569491e+00	
6.408076e-01	4.773243e-01	1.774509e+02	8.829689e+03	-6.460507e+02	5.333657e+07	7.924945e+05	6.505177e+02	-1.229661e-01	1.549268e+00	
6.557575e-01	4.844473e-01	1.766383e+02	8.802883e+03	-6.658608e+02	5.308950e+07	7.916477e+05	6.504601e+02	-1.267145e-01	1.543577e+00	
3.289667e-01	6.701311e-01	2.093652e+02	9.725881e+03	-1.974720e+00	6.303800e+07	8.201724e+05	6.526321e+02	-4.454504e-04	1.699810e+00	
3.503022e-01	6.722295e-01	2.093097e+02	9.724560e+03	-2.825071e+00	6.302114e+07	8.201309e+05	6.526286e+02	-6.289419e-04	1.699726e+00	
3.286670e-01	6.489607e-01	2.093266e+02	9.724976e+03	-2.581625e+00	6.302626e+07	8.201435e+05	6.526297e+02	-5.732372e-04	1.699754e+00	
3.699535e-01	6.721454e-01	2.092314e+02	9.722678e+03	-4.064944e+00	6.299734e+07	8.200724e+05	6.526237e+02	-8.879663e-04	1.699602e+00	
3.290243e-01	6.291950e-01	2.092773e+02	9.723842e+03	-3.328123e+00	6.301128e+07	8.201067e+05	6.526266e+02	-7.362161e-04	1.699685e+00	
3.898313e-01	6.717796e-01	2.091262e+02	9.720116e+03	-5.781127e+00	6.296535e+07	8.199937e+05	6.526172e+02	-1.236256e-03	1.699428e+00	
3.287721e-01	6.094070e-01	2.092180e+02	9.722485e+03	-4.220097e+00	6.299327e+07	8.200624e+05	6.526229e+02	-9.322829e-04	1.699603e+00	
4.098809e-01	6.714878e-01	2.089889e+02	9.716730e+03	-8.075102e+00	6.292361e+07	8.198910e+05	6.526086e+02	-1.691097e-03	1.699190e+00	
3.289353e-01	5.896709e-01	2.091380e+02	9.720670e+03	-5.386907e+00	6.296895e+07	8.200026e+05	6.526179e+02	-1.197132e-03	1.699494e+00	
4.299961e-01	6.713882e-01	2.088139e+02	9.712365e+03	-1.105239e+01	6.287040e+07	8.197599e+05	6.525977e+02	-2.271461e-03	1.698873e+00	
4.144796e-01	4.962176e-01	2.055959e+02	9.634574e+03	-6.407656e+01	6.189231e+07	8.173216e+05	6.523960e+02	-1.306502e-02	1.692397e+00	
3.917812e-01	4.991762e-01	2.067017e+02	9.662478e+03	-4.451325e+01	6.222845e+07	8.181656e+05	6.524656e+02	-9.328697e-03	1.695054e+00	
3.293544e-01	5.696842e-01	2.090342e+02	9.718318e+03	-6.884558e+00	6.293740e+07	8.199249e+05	6.526115e+02	-1.541052e-03	1.699351e+00	
4.500882e-01	6.714137e-01	2.085930e+02	9.706799e+03	-1.486596e+01	6.280325e+07	8.195942e+05	6.525840e+02	-3.004852e-03	1.698454e+00	
4.373832e-01	4.933565e-01	2.041610e+02	9.597508e+03	-9.033452e+01	6.145610e+07	8.162159e+05	6.523053e+02	-1.795951e-02	1.688453e+00	
3.299597e-01	5.493597e-01	2.088970e+02	9.715221e+03	-8.807538e+00	6.289571e+07	8.198222e+05	6.526029e+02	-1.995688e-03	1.699161e+00	
3.696926e-01	5.021830e-01	2.075228e+02	9.682730e+03	-3.049035e+01	6.247806e+07	8.187881e+05	6.525171e+02	-6.572932e-03	1.696793e+00	
4.701339e-01	6.714689e-01	2.083160e+02	9.699761e+03	-1.970509e+01	6.271906e+07	8.193861e+05	6.525667e+02	-3.925859e-03	1.697905e+00	
4.603445e-01	4.906402e-01	2.023742e+02	9.550244e+03	-1.240998e+02	6.091290e+07	8.148216e+05	6.521915e+02	-2.413161e-02	1.682820e+00	
3.296238e-01	5.297476e-01	2.087645e+02	9.712193e+03	-1.068994e+01	6.285545e+07	8.197229e+05	6.525947e+02	-2.435239e-03	1.698968e+00	
3.490790e-01	5.056079e-01	2.081153e+02	9.696988e+03	-2.079948e+01	6.265813e+07	8.192351e+05	6.525542e+02	-4.594471e-03	1.697904e+00	
4.901547e-01	6.715042e-01	2.079705e+02	9.690909e+03	-2.582121e+01	6.261401e+07	8.191260e+05	6.525451e+02	-5.077315e-03	1.697186e+00	
4.832352e-01	4.879422e-01	2.002117e+02	9.491734e+03	-1.661241e+02	6.025547e+07	8.131062e+05	6.520528e+02	-3.172488e-02	1.675021e+00	
3.303956e-01	5.113968e-01	2.085634e+02	9.707563e+03	-1.374497e+01	6.279433e+07	8.195720e+05	6.525821e+02	-3.103084e-03	1.698661e+00	
5.101824e-01	6.715076e-01	2.075433e+02	9.679859e+03	-3.350032e+01	6.248412e+07	8.188035e+05	6.525184e+02	-6.504763e-03	1.696246e+00	
5.058843e-01	4.851504e-01	1.976666e+02	9.421414e+03	-2.167688e+02	5.948171e+07	8.110447e+05	6.518880e+02	-4.085042e-02	1.664595e+00	
5.302388e-01	6.714834e-01	2.070228e+02	9.666257e+03	-4.300692e+01	6.232587e+07	8.184094e+05	6.524858e+02	-8.249587e-03	1.695028e+00	
5.281366e-01	4.821846e-01	1.947542e+02	9.339397e+03	-2.759284e+02	5.859628e+07	8.086237e+05	6.516974e+02	-5.156746e-02	1.651183e+00	
5.503381e-01	6.714301e-01	2.063990e+02	9.649787e+03	-5.458015e+01	6.213620e+07	8.179351e+05	6.524466e+02	-1.034913e-02	1.693469e+00	
5.704956e-01	6.713469e-01	2.056640e+02	9.630169e+03	-6.843934e+01	6.191273e+07	8.173735e+05	6.524003e+02	-1.283497e-02	1.691500e+00	
6.745398e-01	6.756829e-01	2.004076e+02	9.484843e+03	-1.722653e+02	6.031439e+07	8.132618e+05	6.520653e+02	-3.103617e-02	1.673648e+00	
6.724954e-01	6.556507e-01	1.989871e+02	9.445387e+03	-2.003093e+02	5.988251e+07	8.121190e+05	6.519736e+02	-3.609498e-02	1.667970e+00	
6.533427e-01	6.687219e-01	2.013127e+02	9.510618e+03	-1.538317e+02	6.058964e+07	8.139827e+05	6.521235e+02	-2.784515e-02	1.677200e+00	
6.722111e-01	6.349061e-01	1.970565e+02	9.391251e+03	-2.387141e+02	5.929554e+07	8.105416e+05	6.518481e+02	-4.307744e-02	1.659648e+00	
6.310371e-01	6.709720e-01	2.028016e+02	9.552204e+03	-1.239670e+02	6.104238e+07	8.151563e+05	6.522187e+02	-2.264976e-02	1.682595e+00	
6.723756e-01	6.144664e-01	1.948487e+02	9.328761e+03	-2.831577e+02	5.862429e+07	8.087014e+05	6.517033e+02	-5.122359e-02	1.649349e+00	
6.109042e-01	6.711977e-01	2.038682e+02	9.581450e+03	-1.030431e+02	6.136668e+07	8.159883e+05	6.522866e+02	-1.896690e-02	1.686123e+00	
6.726934e-01	5.942957e-01	1.923677e+02	9.258495e+03	-3.337504e+02	5.787004e+07	8.065836e+05	6.515392e+02	-6.059838e-02	1.636978e+00	
5.907049e-01	6.712652e-01	2.048189e+02	9.607354e+03	-8.462385e+01	6.165576e+07	8.167240e+05	6.523469e+02	-1.571018e-02	1.689064e+00	
6.728620e-01	5.743091e-01	1.896703e+02	9.182339e+03	-3.891880e+02	5.705013e+07	8.042165e+05	6.513589e+02	-7.107674e-02	1.622727e+00	
5.498893e-01	4.789794e-01	1.915105e+02	9.246454e+03	-3.430722e+02	5.761017e+07	8.058414e+05	6.514824e+02	-6.388392e-02	1.634617e+00	
6.728662e-01	5.543615e-01	1.867436e+02	9.099271e+03	-4.497615e+02	5.616058e+07	8.015655e+05	6.511611e+02	-8.281183e-02	1.606336e+00	
5.710930e-01	4.754787e-01	1.879870e+02	9.143909e+03	-4.172974e+02	5.653905e+07	8.027054e+05	6.512458e+02	-7.776598e-02	1.614975e+00	
6.728343e-01	5.343786e-01	1.835419e+02	9.006883e+03	-5.168412e+02	5.518749e+07	7.985583e+05	6.509421e+02	-9.612359e-02	1.587316e+00	
5.917068e-01	4.716523e-01	1.842464e+02	9.033621e+03	-4.973168e+02	5.540203e+07	7.992327e+05	6.509909e+02	-9.313812e-02	1.592630e+00	
6.116634e-01	4.676183e-01	1.803604e+02	8.918117e+03	-5.813227e+02	5.422091e+07	7.954520e+05	6.507219e+02	-1.098741e-01	1.568263e+00	
6.729141e-01	5.143935e-01	1.800019e+02	8.902244e+03	-5.927766e+02	5.411158e+07	7.950913e+05	6.506966e+02	-1.114709e-01	1.565120e+00	
6.311385e-01	4.639948e-01	1.764206e+02	8.800738e+03	-6.674036e+02	5.302362e+07	7.914208e+05	6.504449e+02	-1.277189e-01	1.542871e+00	
6.730164e-01	4.944483e-01	1.761588e+02	8.786739e+03	-6.775770e+02	5.294365e+07	7.911433e+05	6.504261e+02	-1.289474e-01	1.540160e+00	
6.530246e-01	4.628620e-01	1.727243e+02	8.687467e+03	-7.517065e+02	5.190034e+07	7.874402e+05	6.501809e+02	-1.453400e-01	1.518296e+00	
6.728542e-01	4.742340e-01	1.722724e+02	8.670437e+03	-7.643686e+02	5.176281e+07	7.869384e+05	6.501481e+02	-1.475610e-01	1.514780e+00	
6.739785e-01	4.538758e-01	1.683923e+02	8.553351e+03	-8.517632e+02	5.058407e+07	7.825091e+05	6.498662e+02	-1.671683e-01	1.489373e+00	
3.192883e-01	6.895241e-01	2.094085e+02	9.726905e+03	-1.311162e+00	6.305116e+07	8.202047e+05	6.526347e+02	-3.023362e-04	1.699875e+00	
3.103251e-01	6.753171e-01	2.094097e+02	9.726936e+03	-1.294985e+00	6.305153e+07	8.202056e+05	6.526348e+02	-2.983768e-04	1.699877e+00	
3.396833e-01	6.889144e-01	2.093682e+02	9.725951e+03	-1.923554e+00	6.303892e+07	8.201746e+05	6.526322e+02	-4.354669e-04	1.699815e+00	
3.113820e-01	6.585823e-01	2.093852e+02	9.726365e+03	-1.671947e+00	6.304407e+07	8.201873e+05	6.526333e+02	-3.794292e-04	1.699842e+00	
3.599738e-01	6.890750e-01	2.093136e+02	9.724650e+03	-2.770565e+00	6.302233e+07	8.201338e+05	6.526289e+02	-6.159905e-04	1.699731e+00	
3.114796e-01	6.391526e-01	2.093549e+02	9.725679e+03	-2.115920e+00	6.303486e+07	8.201646e+05	6.526314e+02	-4.796415e-04	1.699802e+00	
3.799772e-01	6.889682e-01	2.092388e+02	9.722843e+03	-3.968251e+00	6.299957e+07	8.200779e+05	6.526242e+02	-8.636824e-04	1.699612e+00	
3.114759e-01	6.194145e-01	2.093157e+02	9.724792e+03	-2.681760e+00	6.302297e+07	8.201354e+05	6.526290e+02	-6.090834e-04	1.699750e+00	
3.999816e-01	6.887986e-01	2.091394e+02	9.720414e+03	-5.598327e+00	6.296935e+07	8.200036e+05	6.526180e+02	-1.192670e-03	1.699446e+00	